24
Lattice="13.9116 0.0 0.0 0.0 13.9116 0.0 0.0 0.0 13.9116" Properties=species:S:1:pos:R:3:momenta:R:3:forces:R:3 energy=-27549.34872640066 free_energy=-27549.34872640066 stress="0.006743789076885632 -0.004059083326255453 -0.002768679436585858 -0.004059083326255453 0.0017022778050841529 4.137598293875404e-06 -0.002768679436585858 4.137598293875404e-06 0.0022008478970150683" pbc="T T T"
C        4.64610498       1.85117836       0.42763123       1.48102937      -3.18959994       0.86412092      -4.40025762      -3.92063714       1.15229607
C        4.43477929       0.37415537       0.40779002      -0.28131382      -1.05402254      -1.02157745       3.79243061       1.99937280      -1.40716480
C        5.79133507       2.25104037      -0.26807471      -0.59481289       0.44033036      -1.56622784       0.24478949       1.53071785      -0.00271185
N        3.59480642       2.53426944       1.03820815      -0.69740885       1.26410067       0.89810376       1.86386182       0.31757412      -0.55448330
C        5.30906411      -0.38962892      -0.53488699      -1.33130107       1.97630097       0.06868259      -5.75867946      -3.01342719       3.01154876
N        3.62410090      -0.29451778       1.38148459       0.12194357      -1.06995407      -1.79550775      -0.77813389      -2.61371394      -0.08592349
C        6.44910349       0.09582326      -1.09531153      -0.12665518       1.25067034       0.41039183       2.54948770      -0.01823198      -1.54808710
N        4.76044297      -1.62786199      -0.73155345       0.34203648       0.80091145       0.05281507       4.12286342      -0.16280845      -3.47480307
C        6.77524494       1.38922244      -0.87581144       0.71922452       1.56494147      -0.00809302       3.41273329       4.13775648       0.43771115
N        7.36851390      -0.78225884      -1.86569347       0.54251474       1.53120084       0.06804863       2.16995466      -1.91210336       0.22118931
N        8.13606114       1.89544735      -1.29586818       1.14209236      -2.32054875       0.61616555      -2.15920074      -2.79935316       0.99253055
N        6.03961969       3.66665101      -0.23078982       0.07877252      -0.83873814      -0.64040858      -0.15737984       3.44422407       2.19430544
O        3.98042972      -1.46090662       1.84224901       0.65742686      -0.45590586       0.54853023      -1.16557218       4.12113617      -1.22992389
O        2.52380117       0.22953495       1.60794759       0.30155388      -0.39812485       0.10804084       1.20410042      -1.12512895       0.66146557
O        6.85473897      -1.80878083      -2.23097635      -0.36666336      -1.44876154       1.64798370      -1.50633121      -0.91104359      -0.80283661
O        8.61900822      -0.72154183      -2.04648183      -1.98238561       0.43996683       2.89285445      -2.17674165       2.04334829       1.02383300
O        7.15985253       4.02835399      -0.51296102      -0.05453626       0.98182923      -2.26602136      -0.38936083       0.35940772      -0.36317558
O        5.19792048       4.55062445       0.25129990       1.01861124      -0.06821235      -1.28634086       1.69849930      -3.47202692      -1.62775042
H        3.78438508       3.42353779       1.44681017      -0.13958297       0.21742390       0.21071528       0.26855770       0.63167492      -0.45322138
H        2.69946047       2.11964546       1.30949934      -0.53283236       0.84749789       0.17463852       1.24615442      -0.48942154      -0.38240673
H        3.99589303      -1.88035219      -0.18793394      -0.27831787      -0.26015839       0.18043027      -1.04993563      -0.72618226       0.69380893
H        5.25207217      -2.27344316      -1.44873426       0.08667073       0.11507455      -0.25367294      -1.41582352       1.55064667       2.08113473
H        8.74004173       1.06812939      -1.33375071      -0.59973629       0.05599935      -0.09735854      -0.56958098       0.10061966      -0.71750272
H        8.64081784       2.46519598      -0.63749284       0.49367026      -0.38222141       0.19368670      -1.04643528       0.92759973       0.18016743
