1296
Lattice="951.8296173248611 482.76267675660245 278.03472193745506 0.0 478.36791438951366 -447.23160040432555 0.0 0.0 142.97741548549516" Properties=species:S:1:pos:R:3:momenta:R:3:forces:R:3 energy=-1487543.4269325552 free_energy=-1487543.4269325552 stress="3.169460740929413e-06 -2.9036511534648887e-07 1.949140401463699e-07 -2.9036511534648887e-07 2.442871049778683e-06 9.20335673908283e-09 1.949140401463699e-07 9.20335673908283e-09 3.314241330668728e-06" pbc="T T T"
C    -1349.73855823   -2891.43215002    -665.62593413      -2.02300453       2.18422808      -0.71283577      -1.88173756      -0.11740976      -0.73426382
C    -1351.06365315   -2891.90389854    -665.31488125       0.12075836      -0.75472916      -0.55856069       2.82505726      -1.23171205       0.71475765
C    -1349.68322280   -2890.23006923    -666.37035033       0.21965455      -0.16821611       1.54737620       0.57831707      -0.18541118      -2.49856660
N    -1348.59824931   -2892.13067488    -665.48368525      -1.42378384      -0.75533093       0.15305935      -0.42011430       0.80720888      -0.12237488
C    -1352.12950967   -2891.08630511    -665.43096458      -0.90499979      -1.48648420      -0.34743758      -1.93727434       1.89323517      -2.54515579
N    -1351.26976194   -2893.27379479    -664.80829702      -0.65072630      -0.79951606       0.34170962      -0.81282368       3.19602838      -2.68069503
C    -1351.98451051   -2889.83478034    -666.12846482      -2.32379004       0.64099251       2.12653088       2.45353051       2.58678990       0.07802504
N    -1353.35212254   -2891.46091537    -665.11098464       0.33837189      -2.80116029       1.16386063      -4.45295777      -2.52113798       1.44850751
C    -1350.63925565   -2889.23443852    -666.60469088      -0.30193055      -3.57027432       0.02834158      -2.00822299      -2.35375605       0.33671453
N    -1352.98779228   -2888.87840905    -666.02644702       0.14842076      -0.70149790       0.36532968      -3.24213803       4.01469617       1.73461639
N    -1350.51869143   -2888.08204340    -667.36066850       1.08694383      -0.66834435      -1.78500895       0.87893928      -0.34194747       0.90255955
N    -1348.57351148   -2890.34411119    -667.40686406       0.18165265      -0.79800932      -0.95093785       3.22084503       2.80510543       3.39976448
O    -1350.37897708   -2893.66647495    -664.15558450      -0.26159067       0.35056127      -1.01479779       2.45294008      -2.41810833       2.60802453
O    -1352.23375857   -2893.88911086    -665.19417212      -2.50155898       1.43440098       1.63144639      -0.62159622      -0.85322226       0.30555488
O    -1354.20978982   -2889.10769970    -665.75594503       0.60055273      -1.95368203      -0.01484725       2.68941602      -0.45765122      -0.96519251
O    -1352.65614245   -2887.63651678    -666.06394512       1.74192246      -2.58478233       2.65228711      -0.55042442      -2.54739238      -0.39916286
O    -1347.55927186   -2889.73843774    -666.97970574      -0.43243162      -1.40785238       0.83638713      -0.53108411      -0.03619906      -0.33173812
O    -1348.52093812   -2890.96232320    -668.40812623       0.63703346       1.24564704       0.45298018      -1.75547321      -1.17562091      -1.36204114
H    -1347.75392578   -2891.57675021    -665.47952674      -0.64245714      -0.16793226      -0.20356717      -0.05678922      -0.34744454      -0.13929483
H    -1348.69169446   -2892.91690339    -664.89628480       0.33719217      -0.14758549       0.01734632       0.36963629      -0.80017191       0.58399096
H    -1353.72893747   -2892.45056830    -665.00504840       0.13310636      -0.11857641       0.26014237       2.12283006       1.73003911      -0.17904167
H    -1354.19273007   -2890.85874190    -665.11352163      -0.20620942      -0.34085534      -0.06273285       1.70334828       0.31248906      -0.45086356
H    -1351.25431127   -2887.42352089    -667.08787199       0.12006720       0.20419695      -0.01981059       0.18614817      -0.33367199      -0.34799223
H    -1349.60939862   -2887.59921062    -667.58482419      -0.08629457       0.36634923       0.17617865      -1.21037219      -1.62473499       0.64386751
C      766.72579477    5382.43600793    -657.34175788       0.58430764      -0.46598068      -1.01865013      -2.54719831      -2.58077563       0.65265267
C     -433.22798897   -7027.73714125    2468.17980606      -0.35611489       1.28592173       1.04806043       2.14905219       0.82759634      -3.14283175
C      767.70358334    5383.15245187    -657.06785514       2.74751117       2.70379336       0.63865845       0.99393289       1.95496172      -1.61858202
N      765.69494800    5381.73272301    -657.43058985       0.37442819       1.65095112      -3.49677250       1.09245088       2.60908460       0.46935674
C      481.96115410   -2974.23024443    4642.26078724       1.21570178      -0.46532357      -0.23049438      -3.58742304       2.67980020      -3.73125873
N     -432.56734423   -7027.48272809    2467.21366142       1.25296845      -3.05510639       0.97745183      -2.14905219      -0.82759634       3.14283175
C      482.69232024   -2974.97174289    4643.18742073      -0.52200049       0.53947740       1.31899899       1.98934267      -0.45766816      -2.57477985
N      481.29514338   -2973.51560908    4641.53893646       0.80017749       0.83482053       3.90478526       3.37529918      -3.54921091       3.46145941
C    -4966.74010634    -996.52616062   -1719.99765960      -2.00283689       2.95831040      -2.49478595      -0.64873393      -2.70028175       3.73194442
N      483.83125019   -2975.59944327    4642.86222845      -0.51997098      -2.54567302       0.04590277       3.52930362       0.37073192       0.35060261
N    -4966.90844640    -997.22685712   -1719.02925681       2.45248464      -3.81024402      -1.35788442       0.64873393       2.70028175      -3.73194442
N    -5804.73640136    -986.22246356    6155.49365348      -2.14614532       0.82447147       0.47965048      -3.75440340      -1.01800583      -2.85634714
O     7284.03681688   -6188.36270281   -7715.18407843       1.55403685      -1.41832776      -2.57418586       1.44711512      -1.21013072       8.65810053
O    -8970.38114111   10067.47028062    7633.07995468      -2.23383982       1.58762764       1.62438141       2.05125106      -2.61323781       0.56124753
O      484.88736705   -2975.58024876    4643.66247310       2.26365920       1.36871594      -0.13140723      -4.62346004      -0.29982433      -1.94127482
O    -3744.58244454    6732.56733460    6851.32389829       0.52377271       0.61193603       2.35583656       2.60904833      -1.02022285      -1.54457399
O    -5804.22728176    -985.52359776    6154.72544498      -2.62181271      -3.32786648       2.99329676       2.04249806       3.00271440      -3.49192497
O    -5804.42181252    -986.52800526    6156.53830967       0.68601157       1.00298131       1.90604751       1.71190535      -1.98470857       6.34827211
H      767.97945256    5383.84724310    -657.88668224      -0.12796714      -0.10851978      -0.51016981       0.24357624      -0.55600580       1.12497197
H    -8969.74418265   10066.65881295    7633.25423436      -0.32944164      -0.04485292      -0.29115665      -2.05125106       2.61323781      -0.56124753
H     7283.90705768   -6188.25419341   -7715.96042871      -0.90467184      -0.14223096      -0.60372010      -1.44711512       1.21013072      -8.65810053
H    -3743.73474298    6732.23585568    6850.82205331      -0.57699696      -0.34702485      -0.07051939      -2.60904833       1.02022285       1.54457399
H      765.74013006    5380.79817575    -657.70638365       0.03045502       0.28883690       0.13986694       0.21723830      -1.42726490      -0.62839936
H      482.63319741   -2974.73232276    4644.13640223       0.71778454      -0.29781365       0.07529659      -0.68306239       1.25617127       4.43525137
C      618.22757341     832.25478852   -1790.37731104      -0.54929208      -1.75147373      -0.81087525      -0.57515859      -2.10944831      -3.55592168
C      618.73985020     832.93476427   -1789.29139406      -1.15287706       0.13839094      -1.03584744       1.24135055      -1.96554526       1.89969103
C      617.08768937     832.84556296   -1791.05894503       0.08431052      -0.86738995      -0.00566522       3.42763478      -3.92142065      -0.64560802
N      618.70481166     831.07802350   -1790.93611599      -0.75335629       0.08774665       1.09959443      -3.14245440       2.03643487      -1.74740063
C      618.35606779     834.22436649   -1788.79938020      -1.04146933       0.34875869      -0.96812570       1.82966462      -0.57736669       0.39334886
N      619.59943861     832.09062607   -1788.49585109       1.63878659      -0.65942763       0.49856789       2.34255811       0.58041536       3.99559520
C      617.34912193     834.80725629   -1789.46465916      -0.39399477       1.03660073       0.59334317      -3.57566109      -0.78137409      -2.88460593
N      619.11655092     834.85062082   -1787.88269737       0.61076029       0.89764111      -1.06997434       0.10716447      -1.18781172      -0.32505126
C      616.67120101     834.01338415   -1790.63197492      -0.39449641       1.45704121      -0.49659131      -0.20057037       4.19056834       2.11706974
N      616.91306941     836.17691079   -1789.17589018       0.16794870      -0.87363174       1.70630804      -1.62058498       0.86255124      -1.23574352
N      615.74248135     834.64535561   -1791.30784192      -0.95396301       1.23443968      -1.47924231      -1.16596440       2.57735959       0.93392679
N      616.47186775     832.11755541   -1792.24525191       1.12518615       0.57056092       0.01374592      -0.06436272      -0.08253159       2.01561376
O      619.86500829     832.40736525   -1787.23830468       1.10603383       0.41330659       0.35938586      -1.20448401      -0.82659092      -4.18661409
O      620.13866495     831.08334562   -1788.96885968      -0.30056612      -1.14086753       0.29679438      -0.56164430       1.26010495       0.90026070
O      615.65640250     836.50032049   -1789.22530094      -0.73889979      -1.50740326      -0.09549619       3.90265177      -1.19125267       0.20376483
O      617.82356572     836.98947469   -1789.03645781      -1.25405676      -2.00428720      -0.73510747      -1.36871372      -0.49346387       0.51167761
O      615.25608184     832.09915239   -1792.17730011      -0.00314348       0.87032118      -0.10343503       0.59506709      -0.07128141      -1.25566222
O      617.17192440     831.48469964   -1793.05564914      -0.79168953      -0.84622681      -0.61146084      -1.16212182       1.13351634       0.73428851
H      619.44382652     830.63023189   -1790.44883016      -0.23147113       0.22059016       0.41351928       0.42191621      -0.51120800      -0.05946552
H      618.21001349     830.85288438   -1791.89686686       0.44733259       0.12405923      -0.03437309       1.98400759       0.24619427       2.78756894
H      619.55675625     834.33704200   -1787.15915625      -0.16558990      -0.00849565       0.72298939       0.44837869      -1.01538844       0.13598969
H      618.83410350     835.72216022   -1787.59771383       0.33412277       0.28381608      -0.16613939      -0.78977128       2.35901310       0.38672894
H      615.48479533     835.52597547   -1790.85662411       0.05146375       0.35346844      -0.10173885      -0.54635154      -0.34439383      -0.92822624
H      615.50630771     834.41947277   -1792.24559592      -0.02870476       0.17985171       0.05685060      -0.32255066      -0.16708060      -0.19122552
C    -1340.92220431   -1921.13528863     211.11947273       0.10734892       0.68883285       0.06128062      -0.67551864       4.46021604      -2.08227839
C    -1342.24647746   -1920.51607399     210.99428308      -1.15746412      -1.54801044       0.74239025       0.28030035      -0.23327026      -0.64037328
C    -1340.46084528   -1921.56212682     212.38992654       1.04040005       0.45282079       0.42892167       0.34592655      -1.25167008      -1.43159725
N    -1340.04257502   -1920.85889984     210.13252471       0.52387967      -2.49562256      -0.83770315       1.87951143      -1.43958324       0.61601579
C    -1342.82828733   -1919.91937314     212.13426915      -0.17993714       0.45696711      -0.66365040       0.59530689      -2.15789832      -1.00142826
N    -1342.89163762   -1920.13217004     209.52218882      -0.36308607       0.30482237       0.99212138       3.30697900      -1.55174084       0.53573581
C    -1342.13965773   -1920.15581621     213.37219584       0.42992533      -0.70146292       1.73109273       0.59075515      -1.68307861      -0.28644695
N    -1344.01564042   -1919.33207585     211.99823565      -0.60992179      -0.27699962      -0.87502950      -1.16576977       0.95948279       0.72884986
C    -1341.18144481   -1921.28096649     213.49009561       0.04985051      -0.80509537       0.22311388      -3.14172735       2.57448507       3.00577002
N    -1342.60393044   -1919.48329362     214.51465414       0.15278804      -1.73598997      -0.27655967      -0.36238699       0.26823041      -1.68886487
N    -1341.05810947   -1921.82680435     214.69507787      -1.56596598      -0.13006040       0.07574688      -1.32369687      -0.13787367       1.67288323
N    -1339.33896037   -1922.38938855     212.53335088      -0.15678963      -0.66993573      -1.51855567      -0.95970041      -0.99437329       0.33977356
O    -1344.03073660   -1920.32407927     209.25230233      -1.02732896       0.34320073      -0.09692047      -2.05104243       0.01915950       1.18706945
O    -1342.08095173   -1919.88289147     208.63844678      -0.15948019       0.60364906      -0.78861810       0.41183721       0.60323216       0.75660175
O    -1342.36104887   -1919.73673347     215.65225397       0.22831814       2.75085449      -0.25301315       1.14247278      -1.65987586       2.53796885
O    -1343.29234987   -1918.52854733     214.25410765      -0.51538798       1.96604877       0.56887137      -1.62538410       2.67090994      -0.15975863
O    -1338.61167777   -1922.49162829     211.58769364      -0.50978833      -1.61274280       0.28976155       1.92763849      -0.31575125      -1.19773927
O    -1339.20582995   -1923.06087495     213.55719058       1.10925506       0.06609551       0.32617235       0.67803015       0.03572175      -0.02939774
H    -1339.07659763   -1921.09658408     210.39189477       0.39833317      -0.09226947       0.33466160      -0.89602026      -0.02978407      -0.55921719
H    -1340.12882232   -1920.11469841     209.46153255      -0.17425624       0.19170710       0.03093736      -0.99620716      -0.35275686       0.02022484
H    -1344.73596050   -1919.75912076     211.41694277       0.05270001       0.20416688       0.09760836       0.81723828       0.48947148      -0.01890792
H    -1344.26349905   -1918.77149026     212.81576953       0.01311430      -0.19979822       0.13415093      -0.32845663      -0.43684142      -0.64131744
H    -1340.33644622   -1922.55785802     214.81666050       0.20615558      -0.41684917      -0.27116587      -1.02917509       0.83593800       0.01055516
H    -1341.82970615   -1921.54800173     215.41343351       0.15880844      -0.22326314       0.19485026       2.57908942      -0.67234936      -1.67412114
C     2098.93624573     869.59450111    -105.17356925       0.08188478       0.91740899      -1.19338160       2.52668194       1.56061090       1.27729010
C     2097.83832161     869.07529658    -104.38981466      -1.44723933      -2.08793684      -1.58899226       0.68128791       2.55191211       0.53594909
C     2100.27807497     868.81198022    -105.38287576      -0.58610549       1.35115304       0.44447325      -3.22162505      -1.03737767      -0.27335170
N     2098.78587747     870.99324934    -105.43226824       0.56772320      -2.02908306       0.80852881       1.51412364      -1.79366875       0.07602958
C     2097.91276738     867.71729593    -104.02818056       0.75442826      -2.19485685       0.31292630      -0.53699464      -1.93153609      -0.54526431
N     2096.85992163     870.23664423    -103.46161152       2.66463159      -0.07390236      -1.47192274       1.26835433      -1.86728125      -5.26029230
C     2099.08592338     866.97384376    -104.38386040       1.79653626      -1.28156115      -0.44378117      -1.70580521      -1.88043760       1.19592228
N     2096.81258980     866.94782331    -103.61737571      -0.16514432      -0.31852424       0.01081733       5.44101005       0.75416578      -4.21560618
C     2100.12331027     867.36540195    -105.14740763      -1.86825722      -0.04186051       1.92793200       0.54202747       4.49949312      -0.74708202
N     2099.28062339     865.45390934    -104.01396362      -1.72031608      -0.08698648       2.26225883      -1.50343655       1.26840546      -0.00515196
N     2100.99006577     866.53543854    -105.65286589       1.65799077       1.19712044       0.34321641      -0.37110087      -7.15820820      -2.21923626
N     2101.47709063     869.23217594    -106.21226014       0.22255462      -0.05119032      -1.24322579      -5.34925491       2.14396898       2.26902013
O     2096.48257034     869.69655075    -102.49892392       1.81414288      -0.41701943       0.74299138      -0.91329665      -0.48903615       2.58827156
O     2096.43193360     871.31187845    -103.92192586      -0.09389035      -0.25509197       0.90399199       1.15202309      -1.61879754       0.90726561
O     2099.49734947     865.18941587    -102.85256423       1.59416067       1.50730913       2.84738975      -0.01394485       0.11580400      -0.19956173
O     2099.18483186     864.64626020    -104.91427379      -2.11543711       0.92143179       0.32325211      -0.04333380      -0.07429272       0.16392129
O     2101.32276991     870.39982333    -106.54481881       0.49391282      -3.26453498      -0.37171598       1.52472878       0.07788543      -0.87592770
O     2102.39411376     868.50871072    -106.39705202      -0.16355465       0.45920573      -1.73515842       2.06148123      -0.35470020      -0.73920124
H     2098.21524547     871.37476660    -104.73135756      -0.64714008       0.92329080      -0.70985228      -1.61389551       0.49121133       0.36451771
H     2099.59562419     871.58590954    -105.35631150      -0.12094413      -0.71915654      -0.56199426       0.86135428      -0.66364614      -0.91138715
H     2096.18366879     867.41557206    -103.16616851       0.15888591      -0.50254837       0.17340862      -4.90502368       3.29465076       3.43349009
H     2097.05612632     866.10105915    -103.26558727      -0.02911989       0.02997935      -0.77568172       0.52889193      -2.90907779       1.33507388
H     2101.83440296     866.78663589    -106.02829466      -0.10983382       0.37271790      -0.92423114       1.89149487       1.46017552      -0.68943129
H     2100.72573440     865.53411619    -106.14705356       0.48222403       0.01337064      -0.23620011       0.18425220       3.55977672       2.53474252
C     1067.91370682     231.71889103   -1048.92412762      -0.20468152      -2.53859646      -1.18167661       2.19331796      -4.78288182      -2.62587290
C     1066.56068741     232.15210397   -1049.31539322       2.72285320       4.02412601       0.98982979      -0.41122518      -1.46592188       4.77555681
C     1069.02316042     232.45651888   -1048.55925480      -0.75234735      -3.06281502       0.65259761      -0.54232439       0.74949907      -0.41704244
N     1068.21579001     230.46259254   -1049.29733035      -1.70521671       0.01188174      -0.25914065      -3.02675133       4.14194796       2.73877221
C     1065.88232780     232.05852148   -1050.44908427      -1.50339896      -0.01393222       0.53272044      -1.23552588       1.06588517      -4.51942718
N     1065.91144541     231.83196469   -1048.13155182       0.64722885       3.80698227      -3.28620501      -1.49723222       1.35333151      -1.93028580
C      860.10304165     -30.53009576   -1044.90471354      -2.04442306      -2.27892869      -0.13564122      -2.48901367      -3.86861267       2.49855441
N     1066.30181614     231.54277434   -1051.76820045      -0.17685324       0.29112870       0.96997614      -2.49086470       0.60097048       0.87695936
C     1227.30136577     604.48935560    -695.33868863       3.79862045       3.15307843       3.84186490      -0.03873507       0.07832752       0.11011514
N      859.50951451     -31.51810664   -1044.44664991      -0.05298068      -0.99203544      -1.91342743       2.04749817       2.73626767      -2.99336849
N     1226.98261556     605.13391145    -694.43255301      -2.02069064       1.93308561       0.15425375       0.03873507      -0.07832752      -0.11011514
N     1069.91318257     233.07787630   -1048.87299646       0.31807690       0.11367054      -0.93689756       2.75589078       1.85993724       0.29498436
O      592.03216145    -634.62323963   -2081.00053024      -2.33882922      -2.45031227      -2.58410330       0.08642617      -0.14053825      -1.02541433
O     1064.56767794     231.60901496   -1048.43070263       1.17352493      -1.33932085       1.39175985       0.08163424       0.09146164       4.08305354
O      858.94593139     -32.59422859   -1044.30177543      -2.38887177      -1.17030859       2.79385640       0.44151550       1.13234500       0.49481409
O     1065.29047191     231.42427039   -1052.47693096      -0.34609217       2.46533231       0.75817537       2.29827429       0.27021767       1.03022267
O      577.42297246    -186.46399257   -1563.61994212      -3.24588808      -2.11426957      -3.63068272       2.33340623       1.97033710       3.52247750
O     2374.00482744   -1347.99632664   -1875.52358440       4.29778150      -3.96399144      -2.98472292       2.93557413      -3.28670580       3.68930075
H     1064.15866065     231.54275285   -1047.47324349      -0.09880215       0.41915575       0.54521251       0.94016269       0.08264773      -2.95663408
H     1067.20208053     230.32143129   -1049.27759667      -0.01720781       0.11952495      -0.17446384       0.45042458      -3.00009157      -1.55941303
H      592.11370633    -634.75584036   -2081.96802979       0.45910108      -0.28424193      -0.57294318      -0.08642617       0.14053825       1.02541433
H     2373.55911178   -1347.49729777   -1876.08374028      -0.00913258      -0.55355447       0.27184923      -2.93557413       3.28670580      -3.68930075
H     1064.86087263     232.47286181   -1050.49542981       0.32500112       0.96917902       1.00440004       0.48421917      -0.96700320       0.20912647
H      576.97866521    -186.83916730   -1564.29066214      -0.07759706      -0.28310307       0.57924683      -2.33340623      -1.97033710      -3.52247750
C     1402.08319734    1401.53378992    -963.52616195      -0.29608049       0.77286094      -0.28018451      -1.71249842      -1.96560515      -1.10066130
C     1401.07916541    1401.42271115    -962.53148246       0.47476870      -0.51301356      -1.28281653      -0.48013664       1.25209447       3.47412320
C     1403.02120243    1402.55724914    -963.37710682      -0.52751370      -1.30227226      -0.70841516       1.16919340      -1.21206637       1.19015455
N     1402.04543091    1400.63513086    -964.61264567       1.36093613       0.56169575      -0.43801716       1.90529185       4.17841656       0.68110244
C     1401.18190513    1402.11559641    -961.17988902       1.73696956       0.99577219      -0.78767873       0.09781164      -0.74884604      -0.52478844
N     1399.91377170    1400.64775986    -962.63416619       1.20807781      -0.44783668      -0.03469217       0.33027157      -3.38873924      -3.63971896
C     1402.24643878    1402.98578498    -961.08294867      -0.77600430       1.23420692       0.39098937       0.88849678       0.54579919      -1.50424233
N     1400.48742118    1401.91908237    -959.98540317      -2.02991365       1.08553362       0.32327692       1.50633017       1.21095431       1.31656353
C     1403.20351677    1403.25816595    -962.16351878       1.24821364       0.54267722      -0.29723510      -2.72971138      -2.33832200       0.68951913
N     1402.39597882    1403.66079911    -959.78033998      -0.46428900       0.04928298      -0.29541463       2.52275350      -0.56323890      -2.73218681
N     1404.18793614    1404.09233983    -962.02515775      -0.16552946      -0.65573629       1.52556759       0.82184603       1.86308636       1.22806247
N     1404.17348537    1402.42610291    -964.27968504      -1.00386082      -0.98429372      -0.17296577      -1.85265671       1.99547342       1.24025079
O     1398.99627083    1400.80670665    -961.87591391       0.45877641      -0.35007068       1.72557663      -0.53207590       0.19802789       0.60093505
O     1399.87561396    1399.74999286    -963.57513752       0.04438761       0.67681856      -0.24071760      -0.12527146       2.15994676       2.52162384
O     1403.43781685    1403.33843369    -959.20842263      -0.09696023       1.03239617      -1.84912151      -0.94531804       0.68604151       0.89471280
O     1401.62217006    1404.53468125    -959.53982203       1.02603251       0.16148758       0.32046028      -0.45873172       0.64507833       1.41640725
O     1405.31080062    1402.42451682    -963.88477016      -1.15632603      -0.63952185      -0.22872282       0.80521524      -0.38491209       0.14991559
O     1403.80008153    1402.48758574    -965.41336615       0.69353509      -1.31788192       1.02801144       0.77489149      -0.47425524      -2.68349028
H     1401.73785221    1399.74324507    -964.52788513      -0.08098262      -0.31105026       0.34893697      -1.85229229      -2.57655254       1.02969599
H     1402.69946926    1400.73042029    -965.35889291       0.36621555      -0.00751521       0.30841858       0.35389162       0.58902033      -0.04887868
H     1400.76668918    1402.31705917    -959.03543667       0.77701493       0.16040199      -0.18143104       0.28437852      -0.29880147      -2.66735620
H     1399.69964575    1401.39242678    -959.75906320      -0.28109179      -0.10356806      -0.01146460      -1.36660538      -1.25999714      -1.43152311
H     1405.00697134    1404.13760314    -962.54714924       0.04499538       0.35504636       0.20915014       0.89191721      -0.56562579      -1.85155276
H     1404.43599152    1404.39707690    -961.13084311       0.03264737       0.15728931       0.15083401      -0.29699108       0.45302285       1.75133226
C       -0.25351383     932.32167820    -978.27081320       0.17441719       0.05587276       0.69585951      -1.06855077       1.53224151       2.19572255
C        1.06043417     931.67365240    -978.44433122       0.31854192       1.49378223      -2.11279929      -6.19042649      -0.41255570       1.24739841
C       -0.51406328     933.77614651    -978.47633420      -2.43318577      -0.98518472      -1.93874322      -0.12600726      -1.13147601      -0.26476346
N       -1.21278356     931.67110466    -977.58773876       0.82287868       0.91612251      -0.86850005       4.34933031      -2.07977040       0.87242463
C        2.06539530     932.38445208    -978.97434463      -0.66892279       0.05281246       1.59569011       2.36160143       3.61166667      -4.29960780
N        1.06615561     930.24617622    -978.38176765       0.71419588      -1.24946774       1.06611897      -0.67671843      -1.84929263       2.90278206
C        1.79599677     933.80136165    -979.30581479      -2.64694884      -1.40767193       1.33912036      -0.26665662      -0.07799096      -1.12692575
N        3.15226407     931.83705231    -979.55068868      -2.09796639      -1.40274529       0.67781557       0.03809315       4.30076014       1.09765317
C        0.50040980     934.49399891    -979.05853568       0.65516615      -0.78463520       0.52795696       4.90594919       0.45221276      -1.76812967
N        2.81786523     934.49522967    -980.25861279      -0.99876390       0.89308912       0.07141770       3.33303862      -1.23428095       4.81688185
N        0.43590227     935.80134836    -979.35566074       0.73434141      -0.31279615       0.24259694       0.66520949      -1.36674930      -0.42802133
N       -1.66523536     934.67224361    -978.00452463       0.44275635      -0.48952790       1.33603644      -2.51140079      -3.18252134       3.59817747
O        2.15226464     929.77274811    -978.61508805       1.44696264       0.05992637       0.51515065       0.09652393      -1.49269700      -0.53824664
O        0.13188232     929.48257819    -977.86468225      -0.51016352       0.86782708      -3.00027220       2.33083697       2.67112753      -1.79692607
O        4.06122279     934.14694240    -980.04463604       0.06267565      -1.10409764      -0.75062385      -2.57541298      -0.05834426      -0.82923826
O        2.65399439     935.52338234    -980.82962596       1.53761659       0.06058086       0.32543237      -1.83241451       0.72112872      -1.31300893
O       -1.38194474     935.75270410    -977.47728915       0.30614788       2.10744952      -0.89928886      -0.40249230      -1.04848322      -1.52769335
O       -2.82810796     934.13406143    -977.79703764       0.48321518       1.30248429      -0.57130187       3.63798452       1.31107778      -1.55016162
H       -2.10185488     931.92434001    -977.83163157       0.38745530       0.04974296      -0.00039861      -2.83948344       0.50361770       0.26223477
H       -0.84046455     930.78391554    -977.08044654      -0.13758197       0.29996724       0.26586783      -1.94254638       1.77034429      -1.86696403
H        3.20480474     930.90476097    -979.53719424      -0.20562283       0.43205658       0.13370340       0.69056567      -3.93204109       0.27346816