1296
Lattice="-22.605374245880537 9.06091814156304 9.158130192901966 0.0 23.390699622425164 13.97314112234329 0.0 0.0 -27.234072498199836" Properties=species:S:1:pos:R:3:momenta:R:3:forces:R:3 energy=-1487840.0046590872 free_energy=-1487840.0046590872 stress="0.003272614901721625 0.0010081045478958764 -6.463572368994508e-05 0.0010081045478958764 0.0008699796656327868 0.003235069169141712 -6.463572368994508e-05 0.003235069169141712 0.0018214943855956818" pbc="T T T"
C      -21.19078107      13.42814465       1.18113069      -0.16265461      -0.81781667      -0.21585831      -1.19850516       0.04154032       0.77910268
C      -21.38603203      12.26194764       0.37484261      -1.04093888       0.45680360       0.30636907       0.68127325       1.70689756      -0.84686795
C      -20.80178099      13.27144581       2.56562568       1.69262508      -1.77507871      -0.96776662       0.13903584       0.83163052      -1.22593830
N      -21.44876964      14.64131086       0.70695226      -0.75208667       0.34028339       1.27170526       0.27604019       0.90419624       2.19019284
C      -20.89610703      34.41406290      14.80717905      -0.57087798       0.23086684      -0.07284369      -0.04346624      -0.60785945       0.95041360
N      -21.95795432      12.46942455      -0.99503988      -0.06124049      -0.41386564       0.05615940       0.35534044      -1.76119980       1.91449395
C      -20.64820727      34.23813095      16.21490065       1.18648895      -0.64037347       0.55829612       0.25250474       0.35490890       1.20998484
N      -20.69286234      33.38753321      14.02160543      -1.20070835       1.05107389      -0.59330019      -0.71160643       1.08136527      -2.44007565
C      -20.48064808      12.01966674       3.10927639      -0.45847902       0.00668379       0.33756020      -0.22858850      -1.31057704      -1.45830323
N      -20.59727079      32.90377845      16.82182813       0.27374562       0.09708946       0.40254052      -0.26491405       1.95031249       1.15914991
N      -19.99695705      11.91109621       4.31877853      -0.74665841      -0.56660484       0.75792868      -0.15900756       0.96935680       1.11540459
N      -20.91002440      14.43144060       3.40962692       1.63807213      -0.01428687       0.75303770      -0.52775615      -0.68928761       1.19537111
O      -21.90714356      11.54716536      -1.79426813      -0.78604908      -0.13113635       0.60723319       0.46252644      -0.38734362      -0.27890919
O      -22.59641521      13.46717219      -1.21597834       0.14823448      -0.88888448       0.11251377      -0.39786917       1.01472415      -0.51733110
O      -20.54414989      31.88484308     -11.06617370       0.46853218      -0.58985019       0.03470406       0.03680974      -0.23506522      -0.43102027
O      -20.68285764      32.86005204      18.07770250      -0.31614239       0.63400556      -0.46269604       0.17213535      -0.41250240      -1.19445934
O      -20.19081208      14.57032970       4.42081483      -0.60328982       0.45933908      -0.41961497      -0.38854501      -0.62294462      -1.18293342
O      -21.84659362      15.19599077       3.17463668      -0.26345732      -1.28201019      -0.51385970       0.61948459       0.52767887       0.14055839
H      -21.63117681      15.44894849       1.35044469       0.09071139       0.09137764       0.09368748       0.47656233      -1.41110695      -1.05750004
H      -21.72535962      14.72146934      -0.22881612       0.02449150       0.01877255      -0.03675538      -0.39360644       0.31895312      -1.20940704
H      -20.62183264      32.50401372      14.44709878       0.16122955       0.42278717      -0.10067587       0.37221482      -1.24425294      -0.01740017
H      -20.86290603      33.56606178      13.01849334       0.04376881      -0.07050297       0.12831568       0.07655924      -0.70244101       1.13493493
H      -19.91729395      12.78044262       4.87302369       0.21343947      -0.12126970      -0.22047936      -0.17689788      -1.18553502      -0.31570683
H      -20.04032504      10.98539464     -22.52903237       0.10396081      -0.21157473      -0.03976250       0.22006456       0.05155873       0.59246729
C      -17.09872205      11.89266737       3.42916441      -0.35530378       0.21362552      -0.74767942       1.54363670       1.49592058       0.49652580
C      -17.03797497      13.21145897       4.05760327       0.44135663      -0.71737436      -0.61596692      -0.66421111      -2.53605745       0.24902371
C      -17.04376408      11.88437483       1.98269972       0.65301680       0.33185049      -0.58535297      -0.92516527       1.82320793      -0.01335545
N      -16.99091642      10.81033828       4.16557573      -0.07868536       0.72660914       1.83514112       0.49755624      -0.96957726      -2.64422891
C      -17.32618053      14.39637689       3.40104288      -1.29326043      -0.27449263      -0.18055970      -1.26177689       2.99038442      -1.70495277
N      -17.01488975      13.18718645       5.49637743       0.65741609       0.19541796       0.41965404       0.52486475       3.83490183      -1.59929648
C      -17.44926845      14.36858218       1.91217483       1.15266231       0.11124296      -0.74595711       0.41581189      -0.55260274       1.12030017
N      -17.57490918      15.56859333       4.00978085       0.87673644      -1.65995186       0.41755390       0.01250949       0.20189086      -4.43782810
C      -17.24615141      13.11443334       1.20108102      -0.11632085       0.14069671       0.33673323       0.08878127       0.74161079      -0.00177733
N      -17.62538139      15.61039582       1.21428878      -0.80121021       1.34187173       0.31731503      -0.53625729       0.45619424       1.14557211
N      -17.20854813      13.09550137      -0.13167068       0.40486592       0.60469933       0.62315257      -0.04653953      -1.52919030       2.86439779
N      -16.98697475      10.68060998       1.30994501      -0.82879471      -1.40076855      -0.93196036      -0.03960255      -2.38891139      -0.94383133
O      -16.67633046      14.24920522       6.03079319      -0.98267815      -0.13467834       0.27021867       0.31467567      -0.40868721       0.36235108
O      -17.37036054      12.24471060       6.11306650       0.47707121       0.27922559      -0.88198383      -0.77157614      -2.46983415       2.03772780
O      -17.44705485      15.67803472       0.01493638      -0.17952841       0.23993434      -0.59440938       0.34101809      -0.36624634      -0.94323592
O      -17.99978807      16.64966862       1.82834522       1.30602410       0.54705056      -1.20221926       0.25878223      -1.03697662      -0.60005814
O      -17.22260642      10.54346598       0.09574268      -0.49746408      -0.24604406      -0.35254733       0.24843606       0.84113121       0.87805668
O      -16.71074686       9.66766403       1.97304271      -0.48284876      -0.45815744      -0.47473405       0.12216695      -0.13157453      -0.30021959
H      -16.63808816      10.00305702       3.65945137      -0.30959577       0.21137505       0.15108106      -0.48880954       0.04669797       0.12195956
H      -17.06077629      10.74279266       5.13692613      -0.05383655       0.07944423      -0.13355666      -0.17903603       0.60085796       1.32868245
H      -17.86699598      16.44196830       3.43726664      -0.24097518      -0.02726464      -0.19309799       0.77355547      -2.43498023       1.30234293
H      -17.52326808      15.57243396       4.95179574       0.21783254      -0.20290664       0.02277432       0.25911498       0.27397690       3.30874094
H      -16.92500756      12.20147476      -0.50044752       0.05209056      -0.20177370       0.00630543      -0.24571347       0.17678516      -0.60999087
H      -17.13528926      13.95333580      -0.58853936      -0.35787280       0.22139185      -0.27857436       0.01005369       1.32445859      -1.09990610
C      -13.18429204       8.94001144       2.14356043      -0.24151222       0.77818246       0.12715726      -0.41568688       0.99570991       0.11596751
C      -13.09991629       7.66698365       1.48146078      -0.77956976       0.90726463      -0.73892106      -0.50806303       1.19466394      -0.53774794
C      -13.22699115       8.93511217       3.54074513       0.50480040      -0.51223283       0.20744882       0.25702525      -0.39277560       0.24660475
N      -13.25318634      10.11066839       1.49786578      -0.46267146      -0.46405094      -0.01994900       0.74126055      -0.88436805      -1.66644155
C      -13.31311386      29.89300441      16.21438671       0.61393964      -0.47005211      -0.12700657       0.62779593      -3.37569562      -0.78118065
N      -13.20766524       7.66231340       0.01307498      -0.04982004       0.65180334       0.80850679      -0.29808306      -1.17610468       0.23604305
C      -13.42635685      29.92612137      17.66720097       0.03457548      -0.72420707      -0.63009899      -0.45601647      -2.27936433      -2.16564912
N      -13.31527635      28.69559886      15.56708370      -0.51161190      -1.21731547       0.91095139       0.66273221       0.79274739      -2.47931617
C      -13.30399201       7.73503622       4.32567955      -0.40851467      -0.47915817      -0.94885897      -0.85736360       3.67044348       2.94742613
N      -13.71115447      28.70656906      18.39912776       0.24648969       0.60244726       0.85067358       1.62749824      -0.25810385       0.62495577
N      -13.45269426       7.86177227       5.66780700      -0.38330816       0.50721918      -0.33579962       0.48417424       0.62993947       0.22827374
N      -13.13680429      10.23435875       4.22939011      -0.32308571       0.00998003      -1.27383945      -1.75183674       0.51887518      -1.48892741
O      -13.04779074       6.62843740      -0.63835493       0.92585603       1.35474110      -1.26958758       0.29532900      -0.43769898       0.61581519
O      -13.52324578       8.66958156      -0.58419974      -0.36261734      -0.23354576      -0.82531968       0.03975416       1.22117856      -0.07331835
O      -13.72468530      28.74219892      -7.58701609      -1.49310115      -0.50124920      -0.75284301      -0.51395319      -0.14038407      -1.05791106
O      -13.75775491      27.61932241      17.82341964       0.19311124      -0.25263177       1.01622227      -0.46487906       0.46139785       0.27200866
O      -12.28120868      10.39689380       5.02829248       1.11786124      -0.46869465       0.51610220       2.06319266      -0.46338659       2.04817878
O      -13.91964211      11.15546261       3.93910838       1.37150171       0.58254125       0.01764016      -0.24045927      -0.80294551      -0.41452323
H      -13.23089846      10.99745156       1.93244754       0.11055155       0.01890456      -0.15038043      -0.06474624       0.41625720       0.65298477
H      -13.04662969      10.11898069       0.49499166       0.00341628      -0.05753382      -0.06677191      -0.52407879      -0.11562879       0.88821353
H      -13.45881657      27.81612718      16.03211264       0.44698259      -0.20621295       0.03725554      -0.20345824       0.29374157       0.39749955
H      -13.11801045      28.62565767      14.49248325       0.13636283      -0.03005489       0.00287755      -0.63079157       0.74704533       2.94575056
H      -13.37182733       8.71996034       6.24389977      -0.10281775      -0.11572844       0.04711208       0.18297288      -0.86126163      -1.46407504
H      -13.53102205       7.01933476     -21.01350579       0.08568552       0.09065427       0.13450203      -0.05202196       0.07297768      -0.24318300
C       -9.08867033       6.37755666       3.44064125       1.70871762       0.75883955       0.32113655       0.22486400       1.87106446      -0.73271145
C       -9.06992284       7.68309281       4.16526334      -0.16936274       0.44217691      -0.01306044       0.14558773      -0.90513650       0.12341202
C       -9.14194696       6.38658836       1.97274352       0.80013358       0.79363206      -0.19640437      -1.04263180       0.98222737       1.25285845
N       -9.02889017       5.27467826       4.10821180       1.08493916      -0.33576154      -0.02724053       0.49252405      -1.00015106       0.50694721
C       -9.20667689       8.91726455       3.47780614      -0.19626391      -0.30801369       1.15276035      -0.22074135       0.89647484      -0.25952190
N       -8.85726733       7.77934654       5.59229059      -0.34722814      -0.19107648      -0.46716736       0.16666094      -1.43645221      -0.16571203
C       -9.48232824       8.88217234       2.09072773      -0.60331404      -0.19252057      -0.18923943      -0.20772996      -1.02486717      -0.43502482
N       -9.07844399      10.10900921       4.06260230      -0.02476567      -0.90941062       0.65272554       0.50926300      -2.34623521       0.16174917
C       -9.48446629       7.64512644       1.31184465      -0.62987934      -0.04174789      -0.79099985       1.13749541       0.67720324       0.74346055
N       -9.72073893      10.15607606       1.43477684      -1.41031017      -0.41151893       0.39076426      -0.73917757      -0.11010882      -1.76321783
N       -9.69427382       7.70779264       0.02468805       0.40542463      -2.28120065       0.75970925       0.06562098      -1.98366393      -2.43047568
N       -9.00495203       5.17086049       1.22717277       1.51027037       0.35867123       0.70318626       1.71389308      -0.93532887       1.26854485
O       -8.69170319       8.89492803       6.10238815      -0.52416411       0.74542294       1.65334257       0.04739444      -1.07870691       0.73098260
O       -8.82749569       6.74309128       6.28378853       0.13638552       0.72497382       0.36663220       0.02984073       1.16579962      -0.71619325
O       -9.22223528      10.29219999       0.28123687       0.79573160       0.34259358      -0.35440524      -0.94406608       0.40559656       2.02000867
O      -10.49155109      10.99153517       1.94583246      -0.51008711      -0.55563114      -0.12795306       1.69277563      -0.93085017      -0.79557305
O       -9.17291854       5.14978254       0.02824312       0.11004310      -0.49187655       0.00527185      -0.74081431       0.56102181      -1.24784136
O       -8.55575983       4.13668089       1.77641199       0.54156141      -0.06066189       0.37771097      -0.85887931       0.97021827       0.31132639
H       -8.93978632       4.35579186       3.73137543       0.02705326      -0.36755563       0.07414608      -0.22858216      -0.04790765      -1.30053509
H       -8.81558735       5.21440673       5.07645400       0.38101221       0.06898927       0.01169487      -0.28954960       0.96691512       0.84529547
H       -9.26676730      10.92577192       3.59393633       0.28781842      -0.15411567       0.01956532      -0.48637816       1.76595230      -0.95482412
H       -8.83396649      10.11610257       5.02945091      -0.15691834       0.04429989       0.17033331      -0.11426208       0.36325223       0.16870017
H       -9.59040138       6.84412737      -0.59205170      -0.14400297      -0.16673921       0.31659829      -0.41397761       1.39286046       1.70551653
H       -9.72377831       8.56969101      -0.48815132      -0.05816759       0.16733792      -0.43068214      -0.05238388       0.31506116       0.40263477
C       -5.47256679       3.32385850       1.38357594      -0.40899052       0.28268693       0.22599621      -0.20530075      -0.56173585       0.07610826
C       -5.38884303       1.96553401       0.87072684      -0.32931139       0.09060811      -0.50553492       0.14499047       1.81466524      -1.03573433
C       -5.35166903       3.52306656       2.82115649       0.16886930      -0.01996858       0.65198975      -0.38168729       0.64686436      -0.08663280
N       -5.61529614       4.35662854       0.57117280       0.79455968       0.24311013      -0.58145878      -0.37814376       0.07970221      -0.50757185
C       -5.17764289      24.25092353      15.65862976       0.11956149      -0.03353134       0.02278333       0.89152983      -1.60375968      -0.04984514
N       -5.47708273       1.76831467      -0.56692023      -0.01602242       0.87038653      -0.12131844      -2.11093962       0.75834216       0.22594345
C       -5.25173156      24.51511783      17.04778540      -0.92057920      -0.60215410       0.16756779      -0.86935619      -1.46008870       0.78763872
N       -4.86768513      23.02667458      15.13731514      -1.21370446      -0.23029211      -0.65136114      -0.26948767       1.58485028      -0.61166112
C       -5.34500722       2.39525789       3.68868286       0.23437996       0.29298547      -0.14305384       1.86803437      -0.57423046       1.03032404
N       -5.32407322      23.33117974      17.91606325       0.21446486       0.37548854       0.66265165       0.34681834       0.29279362      -0.29756131
N       -5.06940735       2.47035301       5.03819101       1.10900729      -0.54990661      -0.12925351      -1.06981483      -0.90311768      -1.41719030
N       -5.33284794       4.86775172       3.37516664      -0.27340449      -0.20040964       0.08266092       0.44583728       0.69922585       0.03404703
O       -4.99370477       0.78375364      -1.09599861      -0.43666543       0.33007444      -1.11994016       0.30218858       0.33667622      -0.34668539
O       -6.21973947       2.55811036      -1.21416500      -1.66329826       0.58734519      -0.92660421       1.47414233      -0.76587646       0.42637263
O       -5.98171634      23.37493486      -8.28395560       1.56731435       0.67475560      -0.00102284      -0.20206954       0.23928296       0.05507968
O       -4.72919271      22.31794294      17.57879398       0.05439473      -0.32829997      -0.98102990       0.00092565      -0.02739839       0.09638611
O       -5.05507830       5.04399668       4.60002553      -0.61099856       0.73987256       0.48301424      -0.68206110      -0.07177140      -2.69712743
O       -5.54382035       5.85354494       2.59968802      -0.53000439      -0.23648181       0.49762253       0.45632427      -1.62622516       2.41407579
H       -5.68193122       5.25519373       1.04439032       0.00957255      -0.08493945       0.29972737      -0.06337838      -0.29038093      -0.61977629
H       -5.93068906       4.20720904      -0.39860906      -0.14103320       0.02995182      -0.52882486       0.46901651       0.02763801       1.13041247
H       -4.93795857      22.17348005      15.65101884      -0.00711840       0.07082524       0.06686708       0.12043386       0.04708254       0.28258284
H       -4.69798257      22.99747919      14.12127114      -0.04947988      -0.17880308       0.31740159      -0.42774896      -0.01902564       1.14959228
H       -4.81559885       3.37989701       5.34040465       0.09031613       0.00206513      -0.61731619      -0.24935277       0.61208320       0.79373454
H       -5.35456338       1.70825912     -21.56505964       0.07342930      -0.03136769      -0.18431298       0.33387907       0.92557209      -0.75992712
C       -1.53985859       6.54005523       2.34484333       0.73145976       0.79455101      -0.78324451      -0.01479303      -0.27337089       0.20550304
C       -1.62829090       7.72821876       3.14871661      -0.25048054      -0.37796772       0.46595040      -0.03552348       0.39162528       1.82688399
C       -1.75908951       6.68882655       0.91411080       0.06474097      -0.37230944       0.41333724       0.38580988       0.98557832       2.67254377
N       -1.28227284       5.35354130       2.93650064       0.70588682       0.30648636       0.45835785       0.91174632      -0.78342236      -1.49512511
C       -1.79332681       9.01751265       2.59658968      -0.91769942      -0.51967440      -0.47713685      -0.52963631      -0.38610217      -0.59898696
N       -1.64845086       7.64980536       4.66287943      -0.02253741       0.33964961       0.57385236      -0.47217031       0.89754606      -1.51164384
C       -1.75234489       9.08009937       1.15498150      -0.80501831      -0.17625612      -0.89514824      -0.06048127       0.42839529       0.56162938
N       -2.13365689      10.08586088       3.31380871      -1.08034460      -0.20938873       0.08756738      -0.14259562       1.18134422      -1.95648046
C       -1.84701156       7.96376858       0.32300405      -0.54853386       0.50762843       0.22312535       0.86961340      -0.47245996      -1.14219139
N       -1.46738976      10.32942535       0.55232033       0.36447818      -0.38364356       0.33360025      -1.36278977       1.10584310      -0.89302709
N       -1.85074620       8.07365722      -1.01006369      -0.54545753      -0.68481185      -1.12489819      -0.78359153      -1.26942774      -0.39169277
N       -1.59774781       5.58913111       0.12037095       0.18425758       0.05128626      -0.10267765      -0.55284116      -2.15988141      -0.49063572
O       -1.62778822       8.68111614       5.36125666       0.02501391       0.39137222      -0.57459703       0.27804577      -0.67738429      -0.76447790
O       -1.74710410       6.56333889       5.17384617       0.25740504       0.15869015      -1.40832114       0.23038610      -0.96566343       0.60885096
O       -1.94264015      10.64204416      -0.55545887       0.49216842      -0.70505995       0.75904922      -0.43847268      -1.14116741      -0.46054740
O       -0.80871236      11.14227591       1.12620851      -0.85650168       0.25793888       0.20181733       1.52970124       0.88740010       1.75733774
O       -1.31903871       5.60193359      -1.05616878       0.56261378      -0.69818653       1.76055743       0.49693035       1.10451035      -1.76808643
O       -1.79054413       4.50375298       0.64065446       0.84004898      -0.74704136       0.03303864      -0.10985526      -1.81718643       1.07138629
H       -0.98911868       4.55353822       2.30130284       0.01861158       0.06053382      -0.10974152      -0.96690570       1.59933101       1.44366707
H       -0.96760122       5.35013363       3.90115092       0.17680485      -0.36563412       0.01581102      -0.32024863      -0.05572021      -0.56659956
H       -2.45831880      10.95395808       2.84453774      -0.51772451      -0.34968935       0.11637281       0.65319494      -1.17910042       0.75698154
H       -2.12296645      10.05264443       4.30120137      -0.24658440      -0.14477408      -0.16826943      -0.02606963       0.13094689       0.65247688
H       -2.00984419       7.20237507      -1.60980502       0.00757273       0.41596057      -0.20666354       0.52779678       2.00098939       1.22804643
H       -2.05317165       9.00673838      -1.30510732       0.09459733      -0.25951048       0.06713532      -0.12835679       0.05655870      -0.79421578
C      -21.24618710      20.57007699       6.09569072       0.88122504       0.04319536      -0.62819275      -0.24019420      -0.02881460       2.17913331
C      -20.99469655      19.36189570       5.41058971       0.21945923       0.05036262      -0.01666231      -0.84771929      -1.31241289      -1.58126110
C      -21.05510028      20.54306061       7.54853910      -1.95231405       0.70311465       0.93411008       0.39173744       1.77464770      -1.00493160
N      -21.70835016      21.68696644       5.53289598      -0.90278638       1.24033348       0.86070523       1.25198947      -2.49220858      -4.54520668
C      -20.63649087      18.06748167       6.03570132      -1.15597960       0.66441883      -0.03288990      -0.87361440       0.75125401       1.37883684
N      -21.49689293      19.30999826       3.98026183       0.95903131       0.55873443       0.46868037       2.17942993      -2.91250385       3.66572868
C      -20.45174136      18.16169498       7.48913532       0.55168740       0.42564587      -0.14682259       0.47070177       1.06579391      -3.09165204
N      -20.63972824      16.90199583       5.35409782      -0.01992579      -0.18276703      -0.33720710       0.30431036       3.05056718       1.80016981
C      -20.39503447      19.43972600       8.14807309      -0.26221572       0.18066748      -0.12506297      -1.66676122      -1.00654834      -1.16376838
N      -20.01316709      17.02429863       8.19883712      -0.12258177       0.10963066      -0.30125810      -1.34403744       1.45628198      -0.07070656
N      -19.87642740      19.48335402       9.32483518      -1.12781150       0.40802006       0.76222616       1.20055683       0.66373214       2.88649438
N      -21.18014811      21.80326620       8.31187220       0.83575801       0.38261339      -0.49927481      -0.71824718      -0.46636404      -1.10464480
O      -21.73771595      18.21211063       3.51779778      -0.32278225      -0.44475739      -0.35874208      -0.83586364      -1.42272514      -0.60690186
O      -21.52070353      20.26439008       3.31366924       0.44941564      -0.80388797       0.63216484      -0.31323676       4.40821703      -2.23175213
O      -20.52221301      16.94722439     -17.89286400       0.31424465       0.81139531       0.05147985       1.40926190      -1.68254974      -0.57830753
O      -19.26286483      16.25911880       7.62865924      -0.74989596       1.33717342       0.60497217      -0.05544552      -1.05757671       1.12545456
O      -20.66121463      21.88913127       9.40380541      -0.84017224       0.59220381      -0.72356212       0.69110815       0.10250608       0.91213162
O      -21.85832237      22.75651237       7.88910610       0.31932341       1.26263026      -0.02206866       0.27588325      -0.83019693      -0.34385992
H      -21.91053467      22.44906503       6.07457960      -0.57125747      -0.00881086       0.07269383      -0.40302921       2.03289540       1.43821972
H      -21.57101987      21.73836213       4.46849380       0.17342433      -0.24251703      -0.00946468      -0.65433385       0.12888500       2.45148624
H      -20.54944331      16.02110637       5.75540378       0.15753650      -0.10887423       0.01261918       0.51091004      -1.05572315       0.99528916
H      -21.01868125      16.93832770       4.45973602      -0.06528454      -0.18647905       0.00579190      -0.59107661      -0.16276688      -1.66547097
H      -19.86961879      20.31494274       9.90411764      -0.08308438      -0.07273328      -0.19284183      -0.27243076      -0.07596258      -0.60574996
H      -19.67167266      18.65364540     -17.39555460       0.30550952      -0.03676254      -0.16715613       0.07625912      -0.38033279      -0.12913149
C      -16.57221450      19.96718181       8.25359408      -0.57259052       0.25077566      -0.16513501      -2.03658487      -0.88304557      -1.89060615
C      -16.53721865      21.29644286       8.70824888       0.08662215      -1.27160904      -0.35614593       0.57953838       0.37335957       1.18589869
C      -16.92156417      19.81913576       6.86908291      -0.70731840      -0.13625560      -0.72698272      -0.17922595       0.21803756      -1.83064104
N      -16.65193551      18.83416016       8.97670155       0.86094269       0.55679096       1.18798585       1.49434126       0.23675739      -0.00421113
C      -16.98174587      22.42849688       7.91026778       0.31265018       0.32024194       0.10891246      -0.90562693      -2.41605752       0.24115798
N      -16.14995624      21.45039351      10.08924882      -0.54034978      -0.39725431       1.31374888      -0.86948204       1.31541653       0.40812185
C      -17.34733318      22.18387271       6.58153744       0.04246592       0.44379409       1.78020108       1.28447127      -1.13629789       1.94688804
N      -17.26504338      23.55738589       8.48554297       0.85077412       0.56888014       0.84395887       0.24030159       1.35898697       0.73197414
C      -17.22051887      20.90761194       6.01364182      -0.38249987       0.33132632       0.72008405       0.71277772       0.55714635      -0.88608322
N      -17.66234439      23.32397980       5.82992788      -0.21225256      -0.00491573      -1.44592516      -0.72047616      -0.34241005      -0.64217193
N      -17.32683788      20.87399401       4.67628628      -0.82772317      -0.86265413       1.14590045       0.13312728       1.13818792      -0.69733342
N      -17.01132136      18.51993941       6.19916259      -0.08319050       1.48435683       0.52320844      -0.93054425       2.69262337       1.59408375
O      -16.30214926      22.52731246      10.70625310      -0.08740761       0.58282798       0.44009514       0.15620263      -0.62077331      -1.04107721
O      -15.70868573      20.48307089      10.68302120       1.05996227       0.09600512       0.76762758       0.41322173      -0.38814143       0.43511341
O      -16.86622496      23.59319733       4.91447387      -0.01561909       0.56050906      -0.65507097      -1.42597555       1.17623516       0.54501215
O      -18.72408468      23.86732405       6.15060135      -0.21327663      -0.44603742       0.23811787       1.40487101       0.84868638      -1.23213616
O      -17.72582119      18.40806547       5.21468077       0.74110240       0.95095936      -0.80136996       0.58941054      -0.80061662       0.00714190
O      -16.44517402      17.63662623       6.78784590       0.20760639       0.03838275      -1.25940400       0.79300265      -2.53876390      -0.91478678
H      -16.38552782      17.98586048       8.42710567       0.11455356       0.34467512      -0.44441321      -0.54889703       0.91842329       1.38780464
H      -16.43537832      18.97077126       9.95471902      -0.18183817       0.03091466       0.08824333       0.06784843      -0.71012989      -0.37953568
H      -17.52181654      24.37628999       7.99734435       0.27491414      -0.13066944      -0.17685277      -0.29211468       0.46707879      -0.43241953