1296
Lattice="-23.66804705080886 24.31751105118875 15.449567386219112 0.0 24.15543638065575 13.45701761054705 0.0 0.0 -27.596756448108334" Properties=species:S:1:pos:R:3:momenta:R:3:forces:R:3 energy=-1487813.049065062 free_energy=-1487813.049065062 stress="0.0027671640385398084 7.160044703861653e-05 -0.002075265372835521 7.160044703861653e-05 0.004641404603757474 -0.0015865541408826942 -0.002075265372835521 -0.0015865541408826942 -0.0009947078413131104" pbc="T T T"
C      -21.38159798      31.69649148       8.96878466      -0.97094969      -0.28494200      -0.32821035       1.31724649       0.43370561      -2.44762073
C      -21.33683870      30.32578967       8.56579752      -0.28203399       0.62334786      -0.38863587      -1.03267178       0.56185312      -2.30169140
C      -21.55458696      31.95715657      10.29714936      -0.14703577       0.61598857      -0.57485226      -0.73480319       0.12347807       2.82260740
N      -21.18457862      32.74571681       8.12816480      -0.51601635       0.86473398       0.36922430      -0.17440843      -0.00780554       0.86996270
C      -21.60987455      53.45390496      22.93343684       1.12875608       1.34033317      -1.84006455      -0.37894776      -1.33297937       1.09125272
N      -21.46322133      30.01333155       7.11116281      -0.08091259       0.69838430       0.76174654       1.71365646       1.40839953       0.39749251
C      -21.90119598      53.75396897      24.29667430       0.27985876       0.76936443      -0.37056753      -1.23425260       0.65810241       1.21255180
N      -21.62597565      52.17236474      22.60121050      -0.60108894      -0.13180308       0.00565590       1.02361966      -1.74386118      -3.02692274
C      -22.08071234      30.98396566      11.25943997       0.24540735      -0.03554189      -0.26289366       0.75707747      -1.04174627      -0.22842961
N      -22.27408465      52.64206650      25.25172320       1.83326150      -0.77134079       1.05207216       1.31682860       0.42513158      -1.73958942
N      -22.65663720      31.32840628      12.44180849      -0.72361961      -0.79852204       0.74841250       1.01074536       0.14867451      -1.54374270
N      -21.37204868      33.34434310      10.71975885       0.54874538       1.08838223       1.87491543      -1.43199616      -0.54789678       1.31926768
O      -21.66539416      28.84993322       6.77158938      -0.33014850      -0.63986115      -0.91541864       0.00173238       1.51055725      -0.73245646
O      -21.20587435      30.96482127       6.30754395      -0.47138603       0.29430657      -0.11856150      -1.01819196      -2.52299743       1.15068436
O      -22.40449742      51.46678626      -2.73574649       0.55876302       0.10118560      -0.69860352      -0.29339050       0.80816573       0.26449095
O      -22.34149420      52.91313748      26.41816782      -0.40418073      -1.49490007      -0.65001270      -0.33787455       0.45401009       1.05100395
O      -22.28871071      33.74074407      11.47822538       1.00189747       0.24930100       2.13829230       1.06074449       0.58770983      -0.71368965
O      -20.41819311      34.01983417      10.39123254      -1.08652881      -0.49425777      -0.07821797      -0.65662945      -0.40577814       0.13778606
H      -21.13326115      33.70036741       8.48408445      -0.54436252       0.13171792       0.19100541       0.06573201      -0.80657868      -0.35269385
H      -21.15756044      32.66564967       7.12876292      -0.10997671       0.22782815       0.07379667      -0.02554963      -0.60789754       0.09948502
H      -22.04237272      51.46727254      23.18930301      -0.03206190      -0.26074349       0.16141017       0.20660515       0.27382034       0.38744487
H      -21.36056612      51.84928524      21.62552439      -0.05762510      -0.16792886       0.15281125      -0.77078573       1.22249324       1.97969551
H      -22.67615881      32.32017900      12.57101544      -0.03786693      -0.04945210       0.22255772      -0.18955643       0.21451710       0.40648737
H      -22.60420427      30.74251376     -14.33802025       0.02540205      -0.24976205      -0.04062193      -0.02311571      -0.22413907      -0.19774548
C      -18.00375561      17.99107190      14.67907044       0.56538643      -1.02133671       1.26432862      -0.17733850       0.06988361      -1.90819477
C      -18.26953797      19.18717532      15.43149333       0.52027616       0.22580764      -0.79162814      -0.14512777       0.01255471       1.06431160
C      -17.82861553      18.27171157      13.21500811      -0.05927817       1.07824698       0.07016215       0.04459654      -1.50470564       2.56959901
N      -17.92926302      16.73182760      15.20711069       0.81477948      -0.29882770       1.06488698       0.13446597       2.73475997      -0.20864833
C      -18.36982232      20.49059707      14.89375228      -0.00761600       0.31497585       0.32509233       1.37980853       0.91183864      -2.86750951
N      -18.38019621      19.04660179      16.88821818      -0.01666734       1.39257874       1.30170722       1.74975049       2.05738405      -1.65142480
C      -18.07729272      20.62789551      13.41437058      -0.18690165       1.18392440       0.62541699      -1.50489585       1.58557357       1.41407829
N      -18.57493189      21.54728256      15.66497326       0.36065437       0.76080696      -0.82297421      -0.06793923      -1.25270284       0.50346501
C      -17.91920524      19.51942449      12.57219983       0.46228837       0.71430432      -0.30224998       0.26993762      -0.51394445       0.68550546
N      -18.23013812      21.91459029      12.76628921       0.13872159       0.19567541      -0.86551492      -0.96872854       1.42162760       4.03782592
N      -17.91072294      19.69552901      11.26727957       0.37785769      -0.43095215       0.33830194      -0.22651501       0.71427620      -0.59166022
N      -17.30920239      17.19688305      12.42429243       1.66602940       0.34095822       1.57531819      -2.35397379      -2.16343249       1.31034431
O      -18.04858707      19.96504119      17.66437019       0.59684615      -0.20099897      -1.35754581      -0.47000698      -0.35989774      -0.43328016
O      -18.64328199      17.96101929      17.25432929       0.06917500       0.62274946       0.51156870      -1.09617944      -2.59718871       2.11304819
O      -18.01208218      22.12844972      11.58147090      -0.92101847       0.85297379      -0.48530067      -0.12805223       0.67101230       0.38967153
O      -18.62083423      22.85769049      13.56424267       0.33032469      -0.39531542       0.39024244       1.07845688      -1.46050412      -2.82561003
O      -16.37735260      17.37474860      11.72297150      -0.09257024       0.65024941       0.03095862       1.92183992       0.58753510      -1.76432209
O      -17.86653732      16.06720898      12.52760891      -0.50477091       0.34541970      -1.29908133       0.38038572       1.45637071       0.34654801
H      -17.98128173      15.96558460      14.60697948      -0.17422151      -0.30671351       0.12752865       0.16285823      -1.10280691      -1.22453969
H      -17.89767472      16.56059857      16.19970242      -0.16681569       0.09592636      -0.14700538      -0.21391252       0.32524665      -0.28408865
H      -18.65470594      22.48207954      15.32487155      -0.16390195       0.12350679       0.24308451       0.15088696       0.09125036      -0.49852893
H      -18.52693636      21.32707612      16.64331123       0.14917906      -0.15338116       0.48838535      -0.05880989       0.50943025       0.32272510
H      -17.54648521      19.04054406      10.61705134      -0.51790491      -0.24904652       0.25565306       0.09441299      -0.47328537      -0.08836314
H      -18.05777246      20.68331284      10.96906996      -0.09646151      -0.03336828      -0.24243963       0.46535881      -1.40253711      -0.22993037
C      -14.38482482      13.52526463       1.75034010      -0.55208946       0.30239486       0.45331998      -0.72539233      -1.31124088       1.13085116
C      -14.41038647      12.17918564       1.25501289       1.57794414       0.92058039      -1.26582981      -0.60331231      -0.39076882       1.07614309
C      -14.41213124      13.60132360       3.19700025      -0.20695764      -0.22955475       1.03539896       0.05016368       1.05378661      -0.56267662
N      -14.43642333      14.62263282       1.02967502       1.10577184      -0.24636662       0.78329767      -0.41924719       2.41867093      -1.34252503
C      -14.53185861      35.17129964      15.63012068      -0.39807034       0.26170807      -0.00614263       0.57170888       0.30476256      -1.19415391
N      -14.23638606      11.98102064      -0.12882569       0.42001061       0.17406416      -0.18369837       1.87632684       0.73312902      -1.82636533
C      -14.74768861      35.34013264      17.00396951      -0.48474930      -0.41094002       1.12481354       1.05244421      -0.75977385      -0.73823709
N      -14.49056157      33.93975008      15.14782063      -1.12836758      -0.29047552      -0.37499296      -0.01065667       3.65499998      -2.16528523
C      -14.78140527      12.50712530       4.07913537      -1.01811813      -0.14848156       0.11244366       0.18798128       0.57929135      -0.82900844
N      -14.60256245      34.16107898      17.86424059       0.79419296      -0.11940396       0.84996152      -0.53948504       0.42318595       1.53211367
N      -15.10413255      12.58415225       5.33327397      -0.28126981       0.43956404      -0.30340296      -0.10562873       2.13649083       1.31029633
N      -14.31738170      14.94902684       3.74227507      -0.70947056       0.09767290      -0.11286927       0.26700002       1.13685232       1.07426862
O      -13.73112655      10.92122607      -0.51946312      -0.64449148       0.28741268       1.13013334      -1.00470867       0.32383916       0.11250245
O      -14.38371505      12.93755681      -0.94068710       0.72335635       0.06923180       1.05424309      -0.40553539      -1.34753591       1.24443925
O      -13.90241106      33.16695142     -10.02652555      -1.02647669      -0.25096251       1.26538438      -1.39877635       1.74506151       0.27557353
O      -15.19497431      34.25494540      18.97733704       0.54631360      -0.13150362       0.16950491       1.20317066      -1.41995253      -1.73543654
O      -15.02144298      15.12203987       4.74205269       0.10677242       0.40209891      -1.72025897       0.61102216       0.23792498      -0.11976166
O      -13.58658346      15.88925022       3.30787649       0.63953074       0.65699914      -0.68235786      -1.25509801      -2.92515160       0.34078386
H      -14.50657174      15.53860688       1.51548240       0.28858859      -0.07812126       0.03889741       0.33395288      -1.21182529      -0.40372702
H      -14.57070075      14.71597817      -0.01566581       0.23350022       0.29834335      -0.18247788       0.45379129      -1.18632949       2.12508638
H      -14.54843468      33.20214934      15.73043004      -0.13131819       0.31608123       0.26247351      -0.11024296      -2.88866103       1.81719829
H      -14.33599886      33.92605282      14.16576948      -0.24735653      -0.16726822       0.30279615       0.25444608      -0.78726432      -0.86899845
H      -15.29026982      13.42939246       5.85719977       0.30974047      -0.09556152      -0.08642437       0.46247735       0.08849376      -0.82109780
H      -15.11803024      11.73945528     -21.75462677      -0.08300786      -0.13110724      -0.27039438      -0.32204957      -0.77105868       0.69568407
C      -10.60191859       9.33059788       4.09799931       0.21708071       0.53686326       0.60386377       0.70585781       1.43905215      -0.95514595
C      -10.86442253      10.49690353       4.89936961      -0.24131058      -0.05130544       0.13815121       0.33691885      -0.98711271      -0.85312571
C      -10.33625222       9.54787377       2.70043558      -0.13761331       1.21432971      -0.05480896       0.15504934      -1.69028234      -0.75230424
N      -10.44998918       8.15109342       4.65453336      -0.30116210      -0.92749436       0.70883689      -0.25588881      -1.66319700       2.94325863
C      -10.64101064      11.75912625       4.30534510      -0.71962432      -0.20540421      -0.96363764      -0.08702187      -0.06189799      -1.15710550
N      -11.04116723      10.35916556       6.34204212      -1.04478207       0.39489619      -0.85170170       2.78938453      -1.35587450      -1.88948131
C      -10.27392083      11.87360690       2.89861221      -0.54463038       0.22432266       0.81805707      -0.94192734       0.64803137       1.39787113
N      -10.83124484      12.88941114       4.97371815       0.99937484       0.03109992      -1.14991759       0.50116048       1.08754944       1.23559584
C      -10.18171412      10.79323250       1.99182960      -0.69176697      -0.40937213       1.49771938      -0.61434532      -0.98186200       4.36403259
N      -10.20430404      13.24553159       2.38714079      -0.38242898       0.85444228      -1.15540742       2.01312850      -0.77414210      -1.86899654
N       -9.92639498      10.85811885       0.73334580      -0.64584787      -1.40982319      -1.84059760       0.05408933      -4.50953035      -0.60319541
N      -10.21373520       8.21550406       1.95742103      -0.08040270      -0.95136470      -0.30974863       1.11644993       2.30115221       0.02956012
O      -10.48450409       9.45872436       6.94876067      -0.58915385      -1.09626407      -1.60439375      -0.06150383      -1.20874584      -0.14597207
O      -11.55912840      11.24174300       6.92188726       0.74006880       0.64104058       0.17484353      -2.43324454       3.30192462       1.80808444
O       -9.37846503      14.04240142       2.85460196      -1.15928099       1.10320221      -1.15360316      -1.61618382      -0.52087953       0.01818482
O      -10.77443965      13.41782986       1.30092652       0.44722266      -1.03341117       0.09997385       0.02548275       0.46151747       0.87775164
O       -9.38501609       7.95395642       1.10222267       0.96449075       1.56402228       0.68358310       1.23445164       1.71505175      -1.27767805
O      -10.94973944       7.36743700       2.29368026       1.92745669       0.61211919      -0.06915747      -3.09723383      -2.53995159       1.28587178
H      -10.34539954       7.25721112       4.22320940       0.05203164      -0.15790992       0.28421102      -0.11626268       0.35419062      -0.77461935
H      -10.54472824       8.03003510       5.68615323      -0.14629687       0.16912844       0.15919433       0.14483157       0.83161384      -1.27647516
H      -10.30737627      13.71858665       4.67374371       0.65106014      -0.33365383      -0.35641303      -0.52418513      -0.60382109       0.30213651
H      -11.01650676      12.80491465       5.97853204       0.20476465      -0.23191401       0.07635357       0.03856881       0.28507844      -0.87544679
H       -9.76401957       9.95144966       0.26276565       0.11979942       0.19625181      -0.21690239      -0.07489031       1.41819589       0.00114919
H       -9.80537452      11.69504347       0.32498354       0.35906551      -0.34113279       0.11067734       0.44054621       3.15320980      -2.07708880
C       -6.66341211       9.36659609       2.52528925      -0.06323646      -0.46643315      -0.59645352       0.42495751      -0.45157128       1.81609443
C       -6.50201970       8.19917287       1.73069741      -0.01008731       0.33401972      -0.06305267      -0.62905052       0.71204003      -2.05202629
C       -6.57082215       9.13489076       3.94725171       1.42658272      -0.31694936       0.23847222      -0.28274909      -1.09470773       1.46865554
N       -6.90918444      10.59171438       2.05642023      -0.58088362      -0.45382928      -0.48124580       0.20137965      -0.54426293       0.24400344
C       -6.77967436      31.03018334      15.69626002       0.65869332      -1.66952679      -1.15767000       0.95911026      -0.67076521      -0.03285021
N       -6.37771389       8.46148005       0.27730806      -1.22641250       0.16175295       0.66111248      -1.11040880      -1.97197736      -0.33041362
C       -6.41297916      30.89910778      17.10604842      -1.20882354       0.75277913       1.25138524      -1.04025010      -2.40710141      -2.31422775
N       -7.16599863      29.98623425      14.91308062       0.38087329       0.44945650      -0.93763687       0.39194260       4.38319454      -1.76129402
C       -6.34668742       7.78303119       4.54492160      -0.80841798      -1.03134226      -0.03788381       0.00622517       2.22086524      -1.63687874
N       -6.17019896      29.55009337      17.63427680       0.57681123       0.39315877       1.03107264      -0.12711986       2.44845604      -0.04419310
N       -6.05313900       7.56425558       5.81214933      -0.22049003      -0.01739156       0.08966585      -0.73540201       2.16589909       0.50179771
N       -6.76718634      10.19465174       4.90350100      -1.70698992      -0.31430463       0.32805246       0.20756016       0.78016268       0.60475256
O       -6.07010833       9.54984309      -0.18602031      -1.84552472       1.62422630       0.71263590       0.03386189      -0.42221462       0.58158954
O       -6.61946420       7.49501875      -0.49471207      -0.85135522       1.55328359       0.70670751       0.50824710       0.95050824       0.75024885
O       -6.82718957      28.60851052     -10.34068361      -1.29130537      -0.32351283      -1.23559051       1.03957393      -0.05699469       0.65530454
O       -5.25993879      29.59117600      18.49824160       0.23595119       0.42253603      -0.31584165      -0.53833545      -2.76200892      -0.91258913
O       -7.08886952       9.93859814       6.08541716       0.40369810       0.82934012       0.02275945       0.42193826       0.46493950      -2.24192889
O       -6.56055201      11.36492545       4.51878762       0.51977465       0.97893148       0.55742399      -0.32484651      -0.97555505       0.76730178
H       -6.59727829      11.32098461       2.66413596       0.09863030      -0.07879451      -0.18849568      -0.29193562       0.53826828       0.15736460
H       -6.98505263      10.75934763       1.07561613       0.38168685       0.23256232      -0.08959087       0.34433209      -0.06007231      -0.22608546
H       -7.18334104      29.07810725      15.21332071      -0.13062946      -0.31265008      -0.15961650       0.00002310      -2.19906781       1.16985518
H       -7.26402490      30.19933088      13.87366225       0.09944567      -0.38622346       0.05998299       0.32885804      -0.20815150       2.15714357
H       -6.08304903       8.35146820       6.41900488       0.14768690       0.15436591       0.17069410      -0.33007428       0.50699386       0.36235250
H       -5.50942334       6.80408173     -21.51816234      -0.01296966       0.18349593      -0.35164314       0.58296432      -1.33947343       0.28983417
C       -2.46127089      14.53550248       0.71116511      -1.03883820       0.39273719      -2.04147733       0.18582730       0.96346345      -0.60325105
C       -2.53583921      15.94408204       1.05845858      -0.40935509      -1.34632226      -0.15957245       0.13214029      -0.97002008      -1.88370668
C       -2.31197729      14.23062001      -0.69834017       0.46372154       0.18752815       1.65451492      -0.55482173       0.88897427      -1.54246616
N       -2.46338702      13.53641865       1.58590018      -0.74912208       0.20878942      -0.38772917      -0.34863841       0.42109332       0.34918362
C       -2.58458520      16.98987883       0.01005122       0.23291782       1.50151248       0.67664899      -0.40448511      -1.16087548       0.82631497
N       -2.43751821      16.32855265       2.38181911      -0.26490281      -0.08543694       2.05783715      -0.84612895       0.35450625       1.39213673
C       -2.92257198      16.53636285      -1.25583077      -0.13686437       0.23009046       0.65841974       0.23341257      -0.89164004      -3.96694640
N       -2.49537945      18.27484990       0.22238649      -1.07798279       1.10850401      -0.34843013       0.68316227       0.82465221       0.90856456
C       -2.62320740      15.22648207      -1.77927457       0.41730472      -0.72813034       0.47893409       0.48551176      -0.71706266       2.20657973
N       -3.08425598      17.53688925      -2.38412214      -0.27600568       0.45173850       0.22599594       0.32109474       1.35954494      -1.17709360
N       -2.48704341      14.92430309      -3.08535951       0.61254627      -1.14510940      -0.12596594      -0.53924637       1.26419500       1.74845763
N       -1.96518895      12.89804025      -1.11342909       0.58179719       0.58089067       0.83370980      -0.45352789      -0.41631683      -1.72043861
O       -2.74534867      15.59687765       3.34132263      -0.31014232       0.04198731       0.74179983       0.45490812      -0.34104548      -0.85911372
O       -2.11966227      17.49121727       2.57905465       0.43296305       0.33946508      -0.00843037       0.49749599       0.72642852       0.82243153
O       -3.92801782      17.38894902      -3.28782556       1.05559245      -0.41325563       0.41625312       1.75817699      -0.61866631       1.92902595
O       -2.29603077      18.51788117      -2.43579933       1.05693621      -0.29872687       0.12604864      -1.04214610      -1.61646982       0.67559890
O       -1.42091648      12.10167239      -0.36944777       0.39373120      -0.24006424      -0.81397703       0.23366346       0.15676375       1.03595236
O       -2.21825947      12.54453460      -2.27882415       1.07791927      -0.54939921       0.69019172      -0.04956001       0.38509999       0.67982787
H       -2.38386192      12.63199059       1.13970069      -0.08060472       0.27353569      -0.19974437       0.08617315      -0.11729801       0.84988186
H       -2.65424280      13.66344876       2.58919963      -0.17621530      -0.23000182      -0.16772111       0.22521061       0.10344581      -1.15557566
H       -2.36199667      18.98269496      -0.49292216      -0.07550970       0.57580448       0.27191645      -0.29932262      -0.66008098       0.14769538
H       -2.37136715      18.49492870       1.19748793      -0.28325702       0.14444735       0.00539293       0.00355731       0.47367278       0.02876654
H       -2.58142818      13.97874308      -3.29332925       0.11394819       0.04858977      -0.25002662       0.45300862      -1.90512438      -0.29658533
H       -2.85292389      15.46695742      -3.82146149       0.22842944       0.27323785      -0.46216005      -0.27314067       1.26803521      -0.30507729
C      -21.57370791      39.81822834      13.25166163      -0.94842684      -0.52110330       0.66799827      -1.05418945      -3.49022434       0.18682671
C      -22.11742276      38.53952227      12.70498962      -0.06078242       0.24916753      -0.19488393       0.13570350      -0.24414710       1.78618471
C      -21.30752470      39.82644054      14.67717512      -0.87601302      -1.20986470      -0.54810783      -1.14965552      -0.60576625      -1.30014730
N      -21.32211664      40.80505116      12.44965366      -0.45721768       0.33175184      -0.09509425      -0.75287549       0.58455356      -2.82978405
C      -22.24684152      37.33368192      13.54257885      -0.53076541      -0.62286142      -0.35854532       0.76122934       0.42766690      -0.53226019
N      -22.57913768      38.47816379      11.33070500      -0.01269552       0.19484905       0.83786976      -2.59967828      -1.62271954       1.68864603
C      -22.02850333      37.42309857      14.97486124      -0.12392301      -0.31268998       0.27514322      -0.34542852       0.53957061      -0.04826434
N      -22.42402326      36.13794830      12.96818146      -0.02793993      -1.98290316      -0.71899027      -0.07589796       1.38822702       0.64539970
C      -21.75536039      38.69863332      15.56756130      -0.01957554      -0.84756252       0.53162119       2.59766885       2.14990737       0.21506028
N      -22.11653523      36.23331246      15.82802434      -0.56432394      -0.36356682      -0.63428336      -1.31910612       0.13938516      -1.33294105
N      -21.61568235      38.93728855      16.89244669      -1.06618187      -0.38215712       0.35813758      -1.92857156      -2.96335553      -1.39457470
N      -20.57272439      40.96123336      15.15475297       0.09924671      -0.33529497      -0.38476442       1.39863318      -0.37794882       1.28823932
O      -23.61535328      37.77120845      11.10194436       0.40102651      -0.21253854      -0.87147978       2.16357673       1.02733112       0.18717413
O      -22.04422622      39.14348032      10.49188159       1.00604142       0.81768272       0.31250373       0.63923468       0.80564955      -1.20986772
O      -22.41268925      36.35828585     -10.58747621      -0.43993272       0.83646751       0.74731752       0.46106771       0.34660152       0.35535929
O      -22.03655121      35.11327571      15.31104147      -1.24564554       0.62947214       0.43220763       0.49105793       0.84408012       0.32907043
O      -20.42563609      42.00519793      14.51087631       0.33447135       0.64743662       0.99435538      -0.60104508      -0.92586044       0.71863488
O      -19.95957125      40.78851001      16.23336181      -0.24222375      -0.93442311       0.40834094      -0.91624187       0.62534110      -0.88745663
H      -21.02290080      41.62856683      12.87478050      -0.37742063      -0.09991599      -0.12262509       0.61293476       1.56367728       0.58741643
H      -21.58462225      40.88814175      11.43644048      -0.10850628       0.19813527      -0.20339857       0.49071782      -0.89651864       1.88445998
H      -22.58639866      35.32391970      13.53102774      -0.06234804      -0.23215490       0.34833876       0.09055705      -0.07390635      -0.09285333
H      -22.59960033      36.13830230      11.99358990       0.17682750      -0.13889840       0.13092045      -0.36003649      -0.34821770      -0.52741617
H      -21.10890045      39.71693583      17.23110541       0.20138675       0.00952587       0.21676653       0.24552026       0.52180562       0.17698001
H      -22.01546056      38.17156439     -10.14054115       0.10653312      -0.43201213      -0.22430399       0.66586164       0.85243023       0.11893972
C      -18.05570007      26.43831177      19.01786407       0.06211891       0.11568356      -0.07242112       0.57965012       0.49353834       0.35648139
C      -17.97493341      27.66685337      19.78933238       0.28088312      -0.95572640      -0.84586742       0.04032631      -1.84672311      -0.29370175
C      -17.74466620      26.63294549      17.59766080       1.14098314       0.01199663      -0.40785843       0.51358405      -0.41193977       0.13862551
N      -18.31224132      25.27836939      19.63996523       0.34310794      -0.39037650       0.18577052       0.24454446       0.74833636      -1.05193389
C      -18.23697142      28.90831132      19.15262086      -1.06320590       0.47885787       0.58959321      -0.79770559       0.88059493       0.69760106
N      -17.71938031      27.57222531      21.20743025      -0.95353761      -0.83387441      -0.23554446      -0.97983418      -0.14324450      -0.43641932
C      -18.30338693      28.97115310      17.70041171      -0.97513180       0.96696761       0.69831774       0.62035826       1.47230684       3.00575351
N      -18.50014770      30.00203225      19.89411422      -0.06496551       0.41964116       0.27720110       0.73265867      -3.06314690       1.78451580
C      -17.65279696      27.94548157      16.97711050      -1.08259584       0.31982350      -0.82051731      -1.89991587      -0.96621099       0.83352605
N      -18.48684101      30.32653466      17.27926807      -1.01856605      -0.12130513       0.82310366      -0.64155068       1.40045393      -2.11377359
N      -17.27371353      28.14477870      15.74371412      -1.08280163       0.13416706       0.68298378      -0.30521303      -0.51775040      -4.20527088
N      -17.29670915      25.51641462      16.80602031       0.51709508      -0.85600504       0.52348413      -1.17205632      -1.13798231       3.83292909
O      -17.56491329      28.64971850      21.74640015      -0.88277281       0.52724699      -1.21778809       0.64230603       0.33091215       1.59585043
O      -17.69095535      26.50583545      21.85229582       0.33331724       1.25937969      -1.17158790      -0.19377765       0.95018753      -1.19441776
O      -19.23019976      31.14073781      17.89972694      -1.48994203      -0.58414799      -0.00647675       0.90112303      -1.33881625      -0.95636904
O      -17.98760831      30.69063217      16.21279932       0.15625147      -0.27380742      -1.27387408      -0.10947374      -0.48044900       0.50919805
O      -16.71902799      25.70322618      15.78983274      -0.11956042       0.96339234      -0.80721039       1.14171965      -0.43570143      -2.58307625
O      -17.45107133      24.35806191      17.28877800      -0.93865430      -0.51017581       0.37810980      -0.11942444       1.12470670      -0.69578912
H      -18.28368982      24.47332176      18.99446397      -0.40813816       0.19928265       0.19710050       0.01785470       0.38993459       1.00949178
H      -18.41327254      25.30511098      20.68790503       0.26739269       0.24145338      -0.02794154       0.25132693      -0.28065082      -1.72706374
H      -18.74029761      30.86217069      19.54809052       0.36306058       0.00050771      -0.08429416      -0.67593495       1.77505484      -1.33319048