1296
Lattice="1046.1399047178516 1143.5665205852085 -56.909045648950915 0.0 691.4848310399574 -478.0705303925107 0.0 0.0 146.16211418418715" Properties=species:S:1:pos:R:3:momenta:R:3:forces:R:3 energy=-1487440.6268916745 free_energy=-1487440.6268916745 stress="7.356394437371814e-07 -2.217616793780056e-08 2.830918224430339e-07 -2.217616793780056e-08 1.605669609248594e-06 -2.751824986023693e-07 2.830918224430339e-07 -2.751824986023693e-07 1.4428345336017042e-06" pbc="T T T"
C    -2448.13150238   -6948.92652093    -102.49356712      -1.28183676      -0.92879178       0.63695525       1.42308175       0.77872461       1.91018959
C    -2448.89959973   -6948.38288643    -103.57357318       0.78394754      -1.06947025       0.48094493       0.55069581      -5.91811977       0.02434000
C    -2447.97352913   -6950.37810119    -102.07958459       2.93010017      -1.00071545       0.01626690       0.52100185       4.11861502       1.29421658
N    -2447.53406481   -6947.95169532    -101.72109567      -0.73900781      -0.54783400      -0.43078657       3.15733168      -2.00675602       1.47262036
C    -2449.85306967   -6949.27780713    -104.06859450       0.92507495      -0.00992011      -0.19406658      -1.85936616      -1.25263221      -0.76273668
N    -2449.00623506   -6947.05465047    -103.92421283      -1.15142831      -2.36779353      -0.25222423      -0.84580066      -0.66536757      -2.18208837
C    -2449.87702059   -6950.64030808    -103.48018573       1.65347680       0.47794848      -0.02819626      -0.32358832      -1.83493266      -1.86047147
N    -2450.85557941   -6948.86370674    -104.87775794      -0.39101715       0.49168657      -0.80154798      -3.64735345       1.03064531      -3.38685923
C    -2448.94830207   -6951.21849347    -102.53468901      -1.90467877      -1.11510912       1.20544922      -3.06403540       0.02449977      -1.18376880
N    -2450.68869699   -6951.73308647    -104.31163644      -0.29976461      -1.05837301       1.73717782       0.98463501       1.43509884      -3.14579371
N    -2449.05137836   -6952.46139542    -101.98014936      -0.41291291       0.40312362       0.71245886      -1.78690013      -1.44021922      -0.81608870
N    -2447.40625068   -6950.74379324    -100.58454507      -2.12027418      -0.12717514       0.12140735      -0.08030370      -3.43827278      -0.03579811
O    -2449.24982407   -6946.68187240    -105.09976049       0.59507190      -1.23316438      -0.05142265       0.98177204      -0.03345290       2.57739521
O    -2448.95388092   -6946.44368765    -102.90612581      -0.68887791       0.82811443      -0.33143081      -0.37309735       4.85807934       0.68363112
O    -2451.13505406   -6952.74761261    -103.84108074       0.58713424      -0.30084335      -0.88563108      -0.08505957       0.03721435       1.67654410
O    -2450.75758025   -6951.59656154    -105.58586132      -1.05277066       1.73860004      -1.23716735       0.45867389       0.62126133       2.96032100
O    -2447.02344479   -6951.96367787    -100.39936046       0.04183676       0.94617646       0.34411406      -0.55379263       3.94280098      -1.20501893
O    -2447.52451662   -6949.99409051     -99.63738803      -0.70162008      -0.82016914      -2.44182402       0.20441210       0.32651849      -1.37321402
H    -2446.91395200   -6948.31750807    -100.88500463      -0.56298560       0.29690783      -0.17001701      -1.62939852       1.25266326      -2.65318530
H    -2447.18325768   -6947.16945709    -102.30706791       0.34195769      -0.30337063       0.29630403      -0.38013899      -0.75192521       1.59326478
H    -2451.22597680   -6947.73659491    -104.76043014      -0.71593766      -0.13577888       0.52999329       1.78815609      -4.08191237      -0.71785414
H    -2451.39040549   -6949.43467535    -106.05872134      -0.18297697       0.15927636      -0.06987641       2.46157668       1.99386044       4.95872629
H    -2450.01207111   -6953.02633213    -101.97388023      -0.05799680       1.11627958      -0.05097035       3.39543180       1.64567964      -0.73388841
H    -2448.10389722   -6952.85305623    -102.01840814      -0.14863258       0.29675576      -0.16546229      -1.29793383      -0.64207065       0.90551687
C     2989.76472152   13017.56105367   -4533.42997481       0.51495955      -0.05913284      -0.13276104       1.36510236      -1.63945451      -0.48682780
C     2335.09846013  -12440.26167987    7376.83717791      -0.17907254      -1.23146563       2.12142103       0.71531229      -2.46891016       0.27413341
C     2989.55401138   13016.36374933   -4532.98173635      -1.75266514       2.52779632      -0.85061657      -0.62375823       2.53373082      -0.62125083
N     2990.31036357   13018.65472465   -4533.85379790       0.77422798       0.31154463      -0.44036011      -2.53621003      -3.01122294       0.66833415
C     3677.31715792   -5049.31102382    6838.12202982       0.06494273      -0.75561391       0.17999082      -5.72998489       3.13158330       0.64922771
N     2334.78505764  -12439.17996689    7376.71707080       2.72394037      -0.37757416       0.76069273      -0.71531229       2.46891016      -0.27413341
C     3678.14592546   -5050.39093575    6838.13278638       2.03620408       1.25348934       0.01901451       2.35282748      -0.17525584       0.72537794
N     3676.37193872   -5048.56475258    6838.22410597      -0.85252855       0.59987936       1.74247972       4.36476261      -2.75647527      -0.64718379
C    -4401.79952137   -4869.47112349   -5222.81800193      -1.07366946       2.39056524       0.44788859       1.92112651      -3.58180766       3.46819736
N     3679.26649278   -5050.25178713    6838.87947876       1.93467587      -1.47219670       1.09645433      -0.24751959       1.02033201       0.25662086
N    -4401.36230261   -4870.28628767   -5222.02869370       3.60313561      -1.38246639      -1.17290965      -1.92112651       3.58180766      -3.46819736
N    -8496.99165589   -9710.99110793   14415.96985302       1.54274961      -1.24689444      -3.50689367      -0.08146440      -5.65438227      -0.65533394
O     9361.71362644   -9756.34508847  -15689.99311746      -0.25217405      -0.36043551       0.08269781       3.11646023       3.16500199       0.25565249
O   -16072.73130140    8318.17382861    6957.09436454       1.23734161       0.74461963      -2.36225329       1.30185304       1.90002975      -1.61023351
O     3680.09731927   -5051.13996588    6838.89766795       0.40409278      -1.92007734       0.78612899      -0.12454653      -0.54441897      -0.21711169
O    -4037.35012111    9710.52792543   13259.89062018      -0.04017775       1.21136838       1.67341520       1.33805095       0.62129956      -0.57636933
O   -10422.59154564    3778.65712081    1021.53776321      -1.45080233       2.09580160      -3.26338786       0.03105642       0.19840146      -1.71496919
O    -8497.00940998   -9712.22340613   14415.82703161      -1.65053090       0.24941299       2.30200087       0.08146440       5.65438227       0.65533394
H     2988.95670601   13015.92525885   -4532.19916857       0.41179424       0.11437090      -0.01908997       0.17235186       0.05281573      -0.49300090
H   -16072.25621593    8318.86720682    6956.50674173      -0.26499117      -0.16688354      -0.08511706      -1.30185304      -1.90002975       1.61023351
H     9362.48315376   -9755.56357504  -15689.92999085       0.09512555      -0.07595267      -0.42372542      -3.11646023      -3.16500199      -0.25565249
H    -4036.51211338    9710.91703904   13259.52964591      -0.18013307      -0.59013308       0.11202557      -1.33805095      -0.62129956       0.57636933
H     2990.71019669   13018.81889124   -4532.95640644       0.40378584      -0.14918557      -0.55784677       1.62251404       2.06413091       0.93274537
H     3678.10743969   -5051.30030806    6837.60754890       0.50584358       0.19270350      -0.48844229      -0.61553908      -0.67576523      -0.76693103
C      131.60038788     961.71978060   -2665.39904929      -0.98543085       0.32456595      -1.11071192      -2.63878957      -5.17128795       2.23310075
C      130.89250550     962.27700900   -2666.43698655      -1.25727080       1.38023823      -1.27870670       2.22607449      -0.07417982      -2.94700222
C      132.23333955     962.47032478   -2664.49040733      -1.18594514      -0.72136101       0.92917735      -0.40864290       5.04966254      -5.21918241
N      131.31699734     960.31904619   -2665.12069877      -0.65145150      -0.61698518       1.23057316       0.19811701       3.75632374       1.42587193
C      131.42905207     963.44227049   -2667.01773550       0.08818319      -2.76181650      -2.62396843      -3.37481945      -0.83679676      -1.17683079
N      130.20204777     961.40289095   -2667.46141769       0.62439280       0.00153884      -0.56063124      -0.66793222       1.35876539       3.88426888
C      132.22063672     964.32803463   -2666.22448998       0.26426638      -1.59294381       1.71734965      -2.22840742      -0.40552765      -2.40292316
N      130.99497478     963.63631035   -2668.33121688      -2.28883875      -1.80982591       2.14502506      -1.02923238       1.57087743      -1.45213257
C      132.56250744     963.87373033   -2664.93469728      -0.90708996      -1.56925960      -0.72499155      -0.17575381      -1.27098056       1.85066385
N      132.25745621     965.71920006   -2666.71702957       0.50136138       0.03800321       1.34841058       2.16955544      -0.10752951       1.65112709
N      133.05056164     964.67286827   -2663.99586909      -0.50787579      -0.38247429       0.63609068       0.34772788      -0.12743485       0.56484192
N      132.92487404     961.91517890   -2663.50233419      -1.27099490       0.46838575      -0.07127318      -3.87696993      -1.51128882       6.58620020
O      129.17866325     961.94164004   -2667.77436321      -0.01648545       0.50884001      -0.31393416      -1.83178641      -0.05447160      -1.75599211
O      130.48601281     960.26158476   -2667.66742570       0.39147426       1.90860684       0.50551034       0.92943206      -0.98031521      -0.99398804
O      131.63499566     966.14583050   -2667.72691021      -0.89729620      -0.00340087      -0.36729111       2.06877889      -0.57832937       3.19024714
O      133.09601717     966.33741931   -2665.96572502       0.42459924      -0.40003939      -1.77064390      -2.38900804       0.60201773      -2.84548329
O      132.19548450     961.44005579   -2662.52301244      -0.91031725       1.67144369      -1.00255592       2.15082346       0.35089562      -2.61433923
O      134.07227760     962.08299851   -2663.45052172      -1.24170996      -0.20527920       1.37181441       4.39994375      -0.15583719       0.47714219
H      131.41570615     959.87936973   -2665.94819004       0.32377726      -0.31771929       0.83352726      -0.05109229      -2.32667697      -3.10709117
H      131.73362822     959.79889740   -2664.38171941      -0.15568836       0.06030496      -0.31495861       0.50140964       0.51671979       0.76489037
H      131.41580725     964.46819326   -2668.69783046      -0.04779826      -0.38365539      -0.79289138      -0.03083036       0.13167465      -0.33089477
H      129.95023012     963.55687701   -2668.82304307       0.08249262       0.24252409       0.12385580       3.58349916      -0.32025470       2.74517610
H      133.33033481     964.40314575   -2663.07376201       0.58005739       0.07215735      -0.08727947      -0.15448233      -0.63024063      -0.03537897
H      133.18741234     965.61688262   -2664.21939801      -0.24033229       0.29228497      -0.04931716       0.28238534       1.21421467      -0.49229168
C    -1208.99497064   -3280.30141124     625.95362625      -0.22538820       3.59044864      -0.36432808      -2.83863549      -3.84725567      -1.87753633
C    -1209.64595080   -3281.49056490     625.31118631       2.50157194      -0.31382166      -0.39612517       1.02201310       0.30051377       2.14202334
C    -1149.14012534   -3185.02984787     833.20152155      -2.21165661       1.18478304       3.41400735      -3.48332479       4.16886551       2.71305724
N    -1208.10989041   -3279.64199692     626.18699981      -1.09464217       0.56241381      -1.24339964       1.23691504       3.06850346       1.84778668
C    -1208.62850101   -3282.66395033     625.12822579      -0.83154810       0.73415670      -0.21317662      -5.34900267      -0.42920746      -0.32032798
N    -1210.97301387   -3281.63063819     625.82125907       2.86650055      -0.08794183      -0.63511683       0.64286529       0.54164963      -1.28038382
C    -1207.39731699   -3282.62415098     624.59832592      -3.77887537      -2.05707325      -1.07797478       2.16905250       1.88007219       1.76083391
N    -1209.24662760   -3283.83627060     625.42873950      -2.08337593       0.40580469      -1.28353049      -2.06317666      -3.08295486      -0.40731883
C    -1206.44088176   -3283.72269089     624.75838313       0.10596832      -1.52703512       0.02210021      -0.41518686      -2.53256284      -1.59174098
N    -1206.91442840   -3281.14944248     624.73565600       2.08588553      -2.27181551       0.17195865       4.08965916      -0.00657731      -3.42050999
N    -1205.98490104   -3284.81359116     624.62988559       0.11800181       0.67003664       0.37196541      -1.18066174       3.91712258       0.87923382
N    -1149.84326918   -3184.18832081     833.74917920       3.79238287       1.13067740       1.17449262       3.48332479      -4.16886551      -2.71305724
O    -5933.83626790   -7587.62931070   -3986.05554817      -2.22919062      -0.95281981      -2.86352201      -1.11882699      -0.53430574      -3.83558954
O    -1211.84649753   -3282.33331724     625.33492097      -0.31952261       1.91180645      -0.03381279       1.42333546      -0.38591264       0.30366007
O    -1206.03853056   -3280.97328651     625.54193850       1.36152150      -2.04931731      -2.21390272      -0.13809597      -0.74377595       0.90551913
O    -1207.12718663   -3280.34068585     623.82461700       0.37178116       0.73504571      -0.57076047      -1.08724194      -1.52772335       0.53307208
O     -780.78776196   -3912.58786849     842.19250515       2.52841549      -3.70600499       1.20018175      -0.44078409       3.39950971       0.80508418
O    -1398.20727418   -3128.64698191     543.91640816      -2.21080224       2.82964981      -1.03425212       0.00567080      -0.02632179       0.03515481
H    -1398.33011628   -3128.07679397     543.15487750      -0.61216946      -0.53384012      -0.55679937      -0.00567080       0.02632179      -0.03515481
H    -1274.87778858   -3341.82510312     828.36512950      -1.20146252      -0.37716932       0.80859948      -1.30755421       0.16979580       2.77133000
H    -1208.65853682   -3284.73380994     625.46181418       0.08068538      -0.00724502       0.41741645      -1.32989719       1.99443428      -0.34233551
H    -1210.35291248   -3283.99857356     625.22582322       0.20124138       0.03217208       0.44217067       3.81805797       0.85367416       0.86802441
H     -780.91954778   -3911.57148154     842.43320958       0.67344008      -0.58161175       0.04959364       0.44078409      -3.39950971      -0.80508418
H    -1275.25900285   -3341.77559956     829.17310406       0.50962785      -0.27220676       1.29575402       1.30755421      -0.16979580      -2.77133000
C     1002.86140775    2839.54296685     532.02244291       0.86953554      -2.11178845      -0.99725655      -4.04231907      -3.68330757       4.53608576
C     1003.71662430    2839.77139191     530.83007825      -0.29686584       0.76038276      -1.19921757      -2.93199892       1.49063423      -0.38104574
C     3507.18819044    3618.77731785     968.99489813       0.42311427      -0.09825464       0.79181619      -0.28812781      -1.85994764       0.21097345
N     1002.10792235    2839.07353313     532.85554880      -1.78170318      -0.64423432       2.59581715       4.38565865       3.01515160      -4.74609836
C     1002.85001794    2839.77753370     529.51692903      -0.34621602       0.99606404       0.23788917       1.75315538      -1.42357453      -4.37673736
N     5524.05153707    -601.43736354   -1997.47551593      -1.02303187       1.13340550      -0.72839725       1.23727747       0.01086773      -0.82729861
C      843.86647535    5012.96814713     418.06630204       1.20291079       1.32024167      -0.71785897       3.13095133       1.16863007      -2.34544019
N     1002.76270480    2839.60810377     528.33084806       0.72048116       0.06174729       1.19645002      -0.15764097       0.91834689       5.25826384
C     3807.20446055    -732.44093601    -181.74774867       1.69748920      -0.85605619       0.94785567      -1.04565598      -2.70887537       2.11863266
N      844.78672463    5013.31163090     417.37693021      -2.86543963       2.20085918       1.44356185      -3.13095133      -1.16863007       2.34544019
N     3807.53158216    -731.59349506    -182.41053888       1.12631652      -1.54921296      -0.68235488       1.04565598       2.70887537      -2.11863266
N     3508.02833067    3619.37484205     968.48747475       3.38182265       0.59599271       1.78408101      -0.46975127       0.19547682       0.27189412
O     5523.05442800    -601.67636929   -1996.85800366       3.49385920      -1.44821274       0.78194330      -1.39981193      -0.12321001       0.91227622
O     5524.66603752    -602.31517671   -1998.07512188       2.16404191      -1.60854221      -0.64204513       0.16253446       0.11234228      -0.08497761
O     8303.44528662    -463.37613491   -3703.70679444       2.53141784      -0.40186404      -1.35105716      -0.16190010      -0.18965876      -0.20793525
O     3703.23814203    -334.64285587  -10919.07471248       1.31514693      -2.17635545      -3.77214124      -4.58575728       4.34382952      -1.11065776
O     1004.82109899    2840.18169939     530.88739608      -3.88171777       2.09718375       0.54824020       0.99314493      -0.31725062      -0.29046814
O     2084.55185321    4942.80863767    3664.10904272      -0.03888942       0.86726462       3.22905960      -0.32104382      -2.24345500       2.66245149
H   -32031.83401299  -71893.68519389   25983.85548000      -0.59921200      -5.91742115       2.60225191       0.00000000       0.00000000       0.00000000
H     2084.63490949    4943.38903519    3663.42024787       0.00052967       0.31901101      -0.16445760       0.32104382       2.24345500      -2.66245149
H     8302.96363736    -463.94036557   -3704.32539725       0.01182975      -0.44767973       0.23482558       0.16190010       0.18965876       0.20793525
H    13269.64761873   45378.84957881   27257.72560296      -0.46042125       1.39752658       3.63012398       0.00000000       0.00000000       0.00000000
H     3703.85554124    -335.22768336  -10918.92518010       0.22534808       0.01725629      -0.00806149       4.58575728      -4.34382952       1.11065776
H    -1007.34915636   10613.22462454   -8792.33500184       0.10745321       0.35377428      -0.19096976      -0.03105642      -0.19840146       1.71496919
C    11374.32515278    4946.35513739   -1320.43378442       3.46708733      -0.79431743      -3.16192950       2.13846791       1.54462711      -3.25420567
C    -1806.14317820    5659.72955501    -846.92473126      -0.77043868      -0.08766371       1.51733184      -3.12290548      -0.75625189      -3.14778907
C     1809.42740837   -5927.43219599    3298.49951265       0.17182796       0.35077005       1.50170606       0.02423338      -0.42885419       0.77238990
N    11373.75348927    4945.94222170   -1319.56385759       1.68210979       2.47834828      -1.30716971      -2.13846791      -1.54462711       3.25420567
C    -1805.49595476    5659.89951570    -845.79965278      -2.16722544       0.09876745      -0.82045506       0.73885877       0.24780812       0.40456393
N    -1806.85480635    5659.49155671    -847.79341475      -0.60982941       4.97059903      -0.60294167       0.17155578       0.11244312      -0.39160854
C     -643.12216731   -3886.82566248     879.64902994      -0.19430355      -1.09196494       2.24888716       2.00884504       2.04153105       1.60517901
N    -1804.72838962    5659.98080114    -844.98420202       1.48546907      -1.15338722       0.27558100       2.21249094       0.39600065       3.13483368
C     2440.91037425   10109.43686662    3977.90330187       1.66628159      -0.96668495       0.57797164       0.58131518       3.08920275       2.05294135
N     -642.39802845   -3886.30989698     880.47228861      -1.00388389       0.72925948       1.84930406      -2.10315103      -2.76763033      -0.98020767
N     2441.09556252   10110.42098704    3978.55730281      -2.36854649       0.21369525       2.94556567      -0.58131518      -3.08920275      -2.05294135
N     1809.39595202   -5926.87551789    3297.49690487       0.28017168      -2.48889930       0.63639312      -0.02423338       0.42885419      -0.77238990
O    -4410.21013728   -8665.58360735  -10558.17926535      -2.08492791      -0.02152633      -2.56395772      -3.84967144       0.36427993      -2.23056908
O    -1429.17695040    7658.90087413   -1027.75394760      -0.71930466      -0.86476790      -1.21753975       0.81631321       2.25484635      -1.32437799
O     -641.76573610   -3886.13124428     881.49302967       1.21076002       0.70066212      -1.51289009       0.09430599       0.72609928      -0.62497134
O    -1940.55463613    7637.23597433   -1987.22908553      -0.82213024       2.08406389       0.81414617       0.87369191      -0.61925511      -0.84702435
O      214.67575359   -3255.41569477   -4391.62003737       0.36423640      -0.28021293       0.86754626      -1.38476822       1.49620724      -0.63244067
O    11736.81348079  -12868.37255672   -7668.07725958       3.16657538      -3.22740986      -1.23383605      -1.38963953       2.56490889      -0.96046434
H    -1428.52806131    7659.47664326   -1027.31293718       0.56187121      -0.02950207       0.18203581      -0.57680593      -0.70768818      -0.15151838
H    -1939.92307984    7636.78834005   -1987.84136492      -0.06454714      -0.34899994      -0.16940740      -0.87369191       0.61925511       0.84702435
H    -4409.44218635   -8665.65627566  -10557.73430073      -0.11560483      -0.02746839       0.14062351       3.84967144      -0.36427993       2.23056908
H    11736.34535652  -12867.50852250   -7668.40080871      -0.17641090       0.12027270      -0.16387280       1.38963953      -2.56490889       0.96046434
H    -1429.37059903    7658.18064141   -1027.21222495      -0.59717554       0.66736949      -0.45146816      -0.23950728      -1.54715817       1.47589637
H      215.27591147   -3256.06415027   -4391.34593789      -0.27725929       0.65081795      -0.01410350       1.38476822      -1.49620724       0.63244067
C     1893.61284054    3126.84362536   -1558.45141334      -0.71296382      -0.62487236       0.54884586       0.47692147      -0.80865035      -0.12244441
C     1892.62445778    3126.92702964   -1559.55365528       1.39220405       1.77532033      -0.14646342       2.75659346      -1.07941763       5.93264991
C     1893.72343611    3128.07104138   -1557.75686878      -0.89250207      -1.92328788       0.05748885      -2.14153769      -1.68733260      -0.90116861
N     1894.47570104    3125.84738991   -1558.50139319      -1.51999872       2.40748988      -1.80461290      -2.20103585      -3.23379933       0.35771672
C     1891.35874632    3128.29781885   -1560.65586853      -1.62360604      -0.33828591       0.27314888      -0.17230100      -3.56456038      -2.30548534
N     1892.33999196    3126.03082095   -1560.33150753       0.93248064      -0.92465842       4.09340996      -2.55297692      -0.53877433      -4.38808021
C     1892.09813241    3128.16893289   -1559.43963701      -0.15512439       0.57162979      -0.05215390      -1.95043443       2.21657811      -1.59287240
N     1890.89954922    3129.12499139   -1561.46081804       0.95233843      -0.38845820      -2.30206295      -0.02540210      -0.41796154       0.71994523
C     1892.72132477    3128.85803500   -1558.44294695       1.62971890       0.97262825       0.35676385      -0.29456724       4.77918310       0.10884846
N     2093.10570542    2743.38743217   -1544.10197689       1.36814217      -0.39773563      -3.11259016       0.67686112      -3.41601177       0.34301107
N     1892.60941136    3130.31945312   -1558.33741961       1.31081448      -0.13026439      -1.27378327      -2.73357371      -4.52824667      -1.57869671
N     1894.12710179    3128.34909872   -1556.40740576       1.27906418       3.49577624       3.32052573       6.84926964      -0.96163795       0.16472380
O      929.31401921    1942.70241120   -1750.39218966       1.11329468      -1.98276166      -2.38950275       2.70471143       1.31002013      -0.56825940
O     1891.38063764    3126.74224858   -1561.23256642      -0.09732635       0.20905114       1.73207604       0.95817845       2.91102441       2.65692876
O     2093.16729237    2742.12128101   -1544.23661351       0.79307749      -0.71315921       1.19631998       0.26553566       1.81117626       0.68163361
O     2092.46203959    2744.00842822   -1544.88430059       0.33011873      -1.23347333       2.05032684      -0.94239678       1.60483551      -1.02464468
O     1895.19548521    3127.89841413   -1555.88026182      -1.62182074      -0.33754127      -3.13205979      -0.83898142      -3.31493632      -2.23544222
O     1893.81758597    3129.32201213   -1555.85690689       0.17859866       1.13784348      -0.30837940      -5.20349969       4.70980209       0.91374188
H     1895.31001367    3126.31582877   -1558.48517045      -0.45733213      -0.40662908       0.13620545       3.46927353      -0.70125342       0.65743604
H     1894.21731797    3124.81265033   -1558.75173863       0.08020851       0.28738367      -0.50592183       1.15035434       3.31206919       0.23378252
H     1891.07638401    3129.98355392   -1560.96745156       0.35709440       0.20641197       0.31175626      -0.25031893       1.11863640      -0.28847333
H      928.50835700    1942.31219075   -1750.22292017       0.32754519      -0.17616019      -0.32611962      -2.70471143      -1.31002013       0.56825940
H     1893.40996910    3130.75090266   -1558.07070581      -0.55915934       0.22771489       0.47940032       2.23125290       1.60256472       1.54790770
H     1891.70054711    3130.67061082   -1558.07844374       0.21509896       0.45728234      -1.06540744       0.47278519       0.18671249       0.11898222
C      726.96946499     342.68793773    -566.74692653       1.82334927      -0.69868386       1.16652199       4.76667421       3.14268168       0.61524190
C      726.11311398     341.61925141    -566.93980071       0.33078923      -1.77258347       0.89533032      -3.68661487      -3.77826506       0.04692692
C      725.45179754     341.45918594    -568.12641492       0.56743730      -1.21917967       0.62954503       2.45554359      -0.89050915      -0.11704510
N      727.82805657     343.50738425    -566.68389479      -1.27689507       0.41242275       0.27620561      -3.23050424      -2.61089135      -0.09608378
C    -2210.36712534     485.53897667   -3487.41525952      -3.54574330       2.27486107      -1.58373390      -2.55277950      -5.34183241       1.37452184
N    -1528.70053609    2527.67744146    1562.83043942      -1.30149566       1.50886007       2.71905521      -2.38733510     -10.94277897      -2.55317335
C    -2210.28163039     486.87996731   -3486.66801410      -0.65154715      -1.94598488      -3.07112851       1.14279006      -3.44482477      -3.75627809
N    -2210.62330809     484.31563745   -3487.67505817       0.25202677      -0.82941595      -0.90020038       2.04962241       8.04904699       1.18809787
C      724.33872190     340.53256085    -568.07411236       0.28081985       1.73719975      -1.32845618      -5.21428298       1.49928102       2.19545017
N     3299.92125342     695.93885522   -2359.01918131       1.16541264       0.34049920       0.28873617       0.07308372      -1.36020294       0.00884863
N      723.21252743     340.46255066    -567.63421092       2.03072000       0.85642721      -2.00760820       4.70334010      -0.82798360      -2.32651191
N     1043.35218069    8666.17751812      15.21443367       2.41692776       0.89079877       2.85852258       1.75510817      -0.07852660       1.17922505
O    -1528.90288128    2528.57676480    1563.32859412       0.91819244       0.80372136       1.22148563       0.83785943       8.62759560       2.76311505
O    -1527.53702479    2527.36943685    1562.10729884      -1.45188973      -1.13639273       0.62578576       2.46318947       1.08086523       0.07506538
O     3300.52025715     695.24616934   -2359.87615198       1.16311222      -2.17901499       0.11282842      -1.15930188       0.92339302       1.69565693
O     3299.31029222     695.46308515   -2358.04000059       2.12125072       0.08535728      -2.29389900       1.08621816       0.43680992      -1.70450556
O     1044.31457178    8666.13445907      15.86104663      -0.70142969       3.95886552      -0.70862719      -1.75510817       0.07852660      -1.17922505
O    -3735.36854052    7653.69095226   -3946.57000275      -1.99044465       1.48672217      -2.57707078       2.92779154      -2.00121152      -1.77453196
H    -1527.36687299    2526.40441901    1562.27010902      -0.23441098       0.42306530      -0.02411439      -0.91371381       1.23431814      -0.28500708
H    -3736.03129967    7654.14396308   -3946.16830499       0.04388123       0.49594006      -0.36172867      -2.92779154       2.00121152       1.77453196
H      725.97546974     341.77388814    -569.05809626       0.57263199      -0.34889827      -0.48389420      -1.25748801       0.22255386       0.64016325