1296
Lattice="33.3609561405998 1.1415941506074687 1.6849512006593448 0.0 34.856390075936 0.3640835173877946 0.0 0.0 41.91054375364111" Properties=species:S:1:pos:R:3:momenta:R:3:forces:R:3 energy=-1487838.550202742 free_energy=-1487838.550202742 stress="-0.00025075937103507043 -0.0001496963558157347 0.0006108163753274458 -0.0001496963558157347 0.0006919527326091725 0.00015633968747356367 0.0006108163753274458 0.00015633968747356367 0.0012352930414801897" pbc="T T T"
C       -1.33961479       1.23225419      -0.83840017      -0.22794118       0.04555401      -0.91172427       2.27475090       1.64921173      -1.06744366
C       -0.93352964       0.35782126       0.18491870      -0.70215602      -0.74030582       0.21715907       0.33941964       0.46486229      -0.29281405
C       -2.67456292       1.52593241      -1.01934864       0.91700576      -0.03381899      -0.63927881      -2.14306116       0.07914966      -0.00657460
N       -0.46216825       1.87314163      -1.62071731      -0.11044736       0.56358837       0.07857810       0.38469126      -1.05902184      -0.05707003
C       -1.86374165      -0.11539020       1.12087556       0.44681779       0.83779454      -0.60020847       0.89073653      -1.19000820      -0.23792290
N        0.47462311      -0.04135485       0.18323033      -1.21141787       0.41440768       0.51034407      -1.84184549       0.06881816      -0.68523557
C       -3.24019170       0.14995530       0.99578919      -0.49542150      -0.08282002       0.39277294       0.92449469      -0.30538953      -0.30676073
N       -1.40167522      -0.87315910       2.08261224      -1.16739728      -0.31176437      -0.12336423       0.48086020      -0.67485008       0.63136525
C       -3.64933221       0.94676829      -0.14502279      -0.15467265      -0.24217491      -0.39281019      -0.11094852      -0.33421733       1.58162645
N       -4.10286223      -0.49590242       1.94834705      -1.14094311       0.21352959      -0.29441341      -2.07192195       2.56203146      -1.29970002
N       -4.90737625       1.22905785      -0.23056309       0.62791096       0.70646379      -0.28996414      -0.51427852       0.56206933      -0.91851902
N       -3.04235442       2.55080274      -1.95301312      -0.20364262       0.12614037      -0.13636456      -2.23082449       1.70886129      -0.36072791
O        0.79958868      -1.17889807       0.40618620      -0.71510737       0.06161805       0.20637007      -0.01181937      -1.39697140       1.04767080
O        1.25810460       0.78834483      -0.19417644       0.35404158      -0.48732840      -0.52414098       1.79200205       1.05621438       0.01477386
O       -5.31707822      -0.13799554       1.89354852      -0.41462184       0.16434946       0.54277418       1.42575407      -1.15637035       0.44990403
O       -3.67535772      -1.22883867       2.81758256       0.36954693      -0.67039748      -0.29493322      -0.87088466      -0.38360456       0.25631313
O       -4.23191015       2.73855067      -2.31111076       0.29256903      -0.06258969      -0.66200459       0.14076861      -1.67309107       1.01105503
O       -2.25841378       3.38372305      -2.36506822       1.44773133      -1.23820557      -0.01824240       1.30661591      -0.20877872      -0.09006950
H       -0.77864860       2.41016204      -2.43641573      -0.08716197       0.08720918      -0.10208723       0.33074112      -0.29504838       1.07852027
H        0.50189348       1.67581579      -1.36808956      -0.09073272      -0.11386410       0.16474250      -0.13282519       0.37129673      -0.57802389
H       -2.07754646      -1.30070773       2.70797103      -0.14461046       0.01545152       0.07417246       0.30177220       0.03414450      -0.01055974
H       -0.46705321      -1.20512134       1.98896674       0.11526983       0.05130645      -0.07578584       0.39548821      -0.17996837       0.12755669
H       -5.09664324       1.85915648      -0.98023692       0.10375353       0.27441447       0.16932318      -0.87782474       0.44733195      -0.55703044
H       -5.52580291       0.92604018       0.49887480      -0.06545716       0.05429605      -0.22012722      -0.25993183      -0.23577695       0.21919749
C       -3.18220525       3.21561284       2.93839127       0.32708529      -0.06271223       1.01262162      -3.33473269      -1.18422986       0.37279367
C       -2.24484862       3.91583066       2.18829250       0.76641378      -0.17504887      -0.64098804       0.94442651       1.08777378      -0.03497358
C       -2.82102356       2.18273764       3.89673750      -0.42213601      -1.10919171       0.56912313       1.15379026       0.80314158       0.04629623
N       -4.49833821       3.44428914       2.71008114       0.06635539       0.45646768      -0.18866451       1.58108497      -0.79438093       1.21439867
C       -0.84328638       3.79174602       2.48084439       0.31179480      -0.40874652      -1.10892787      -0.36319934       0.00054894      -1.42014807
N       -2.72144551       4.89387924       1.22072599       0.56188560       0.76661243      -0.33694114       0.62806575       0.41706540      -0.04383647
C       -0.49395763       2.64458451       3.27376615      -0.32872415      -0.55300310      -0.49014705       2.42855248       0.92800799      -1.22604978
N        0.00764763       4.61017302       1.86525304       0.35962404       0.10393025      -0.43128467      -1.38365897       0.28458030       0.33872479
C       -1.38209577       1.86409530       4.01046613      -0.33435078      -0.27662182       0.15924818      -2.42649643      -1.67997892       0.53869185
N        0.87315287       2.19630280       3.09756722       0.88141075      -0.52215051      -0.50292095       0.72799795      -0.81708457       0.59754104
N       -0.99438104       0.77710075       4.67007438      -0.27938422      -0.51138264      -0.88927586      -1.77718508       0.45836137       0.65289815
N       -3.78913110       1.47449237       4.71338216      -0.39402333      -0.69161358       0.06351831      -0.07358545       1.23584235      -1.19993772
O       -2.00985492       5.88110155       0.97605040       0.52233077       1.57875077      -1.16281788      -0.44501435      -0.40091130       0.17065184
O       -3.78220343       4.73434122       0.63540961       0.58907699       0.04242103      -0.38148587       0.09553177      -0.17018630       0.13018731
O        1.28373080       1.21954878       3.74975871      -0.65031247       0.09080972       0.45240798      -0.21820102       0.79856771      -0.55093586
O        1.62216061       2.73231716       2.27274870      -0.45365695      -0.49637195      -0.40559788      -0.46620880      -0.11309052       0.56765593
O       -3.36174791       0.54649109       5.38865592      -0.08552122      -1.07597331       0.86016178      -0.91753931      -0.25065670       0.53822083
O       -4.99819491       1.79702130       4.68900130      -0.46207055       0.27275927       0.27721131       1.55932775      -0.40848846       0.12384948
H       -5.09996411       2.97265352       3.37116483      -0.07678349      -0.02107009      -0.18238301      -0.42287979      -0.13472948      -0.17171356
H       -4.76996987       3.91680911       1.87600570       0.12235753       0.09647645      -0.19061425      -0.16118189       0.35217241      -0.19213447
H        0.96530304       4.32880723       1.74366343       0.01392332      -0.31253993       0.21889130       0.02362257       0.12003418       0.22169091
H       -0.48116418       5.41351247       1.40383702      -0.11866222       0.02951162      -0.11174773       0.93348558      -0.88390083       0.29307992
H       -1.72612422       0.22726935       5.16702539      -0.06115657      -0.07452080       0.17297930       0.89455112       0.83050373      -0.72348262
H       -0.03399861       0.55916769       4.63848351       0.07586742      -0.28309685      -0.22463426       1.03983370      -0.30034512       0.06928573
C        1.41155684      -1.05539317       8.41651231       0.07532548       0.16036803       1.03345652      -1.57301077       0.23115563      -1.00093314
C        2.02553064      -1.89052556       7.43753816      -0.16106660       0.14028731       1.41827776       1.10547846      -0.18239277       0.81902371
C       -0.02588070      -0.85494236       8.37105894       0.09649449       0.48909527      -0.06420794       1.00141598      -1.22329623       0.31151489
N        2.11356772      -0.36119619       9.26155691      -0.98323973       0.12433490       0.16879903       4.20156629       0.03952623      -0.78408289
C        1.21976989      -2.83829566       6.73591247       0.58638261       0.37224687      -0.85493939       0.49216815      -0.36160827       0.64597056
N        3.52211701      -1.92802636       7.36422545      -0.55239628      -0.88704074       0.39818879      -2.18447869       0.29966889      -0.77251151
C       -0.17744884      -2.75855526       6.85603821      -1.17099279      -0.25598028      -0.27405407      -1.61943421       0.87511059      -0.84420183
N        1.74743856      -3.82996525       6.04881809      -0.49063252       0.46824767      -0.60421866       0.33746821      -0.68882148      -0.92846072
C       -0.85118314      -1.68217539       7.53160538      -0.02452789      -0.55607601      -1.01375099       0.90531967       0.82378306       0.37255092
N       -0.94926527      -3.52431727       5.85816618      -0.72668046      -0.86591391       0.36021395       0.08640624      -0.49869283       0.54821423
N       -2.15802981      -1.45234638       7.42885484      -0.94502036       0.94759184       0.19325134      -0.60507409      -0.17182220      -0.93281414
N       -0.57817866       0.11884700       9.27108659      -0.12546937       0.47358499      -1.57460030       1.78861381       0.28873870       0.41897598
O        4.00674850      -2.70023756       6.54525542       0.26073583      -0.40592354       1.35609031       0.54411935       0.00430724       0.38063433
O        4.20239090      -1.12127465       7.99289767      -0.77978063       1.51481054       0.43603508       0.03983676      -0.45217648      -0.16390403
O       -1.85781310      -2.96746441       5.24735086      -0.36011420      -0.52190791      -0.24653562       0.25231825      -0.17119694       0.21657915
O       -0.65761707      -4.71135597       5.67575957      -0.00126030       0.25805780       1.38724914      -0.36615555       0.89117881      -0.02480124
O       -1.59748000       0.66892090       8.90856442       1.38787310       0.64454421       0.02100916      -1.29878368       0.13589818       0.46236309
O        0.04346585       0.45601600      10.31204808       0.07473548       0.35771110       0.14326355      -1.72908520      -0.53167385      -1.31557852
H        1.72144269       0.37731763       9.74963686       0.00237997      -0.15834398       0.19628749      -1.00199529       1.05406446       1.14848956
H        3.13528738      -0.26242313       9.02136176       0.02376282      -0.08752799      -0.34781807      -1.58033956      -0.49565877       0.48520935
H        1.21613897      -4.48663180       5.50787356      -0.27004446      -0.17774193       0.42197009      -0.49835343       0.14160179       0.36443223
H        2.72593458      -3.90256738       5.96557156      -0.02676669      -0.04441111      -0.09417280       0.97491708       0.29479514       0.05921793
H       -2.53133835      -0.55962403       7.78731239       0.11690808      -0.05899153       0.20756549       0.40523440      -1.04786296      -0.32854315
H       -2.60872937      -1.95078004       6.64223112      -0.18889085      -0.05171482      -0.04244538       0.08183695       0.76860599       0.95053378
C        3.65381589       0.64320132      12.75553080      -0.29340241       0.47808645      -0.20709053       2.12177340      -2.56817971      -0.95988034
C        2.62960235       1.32446465      13.34814329      -0.20010166      -0.00091125      -0.06124201      -2.83457915       1.15077092       0.83172068
C        4.43777809       1.27284346      11.69192197      -0.29548072      -0.65567216      -1.07624235      -0.94271167       0.95252539       0.58451559
N        3.91109402      -0.65554164      13.08593775      -0.56692657       0.01690754       0.26975356       0.56564832       1.36898178      -0.60652040
C        2.27274653       2.66349694      12.97618917       0.75583234       0.89379119      -0.07730109       0.78429507       0.26621579      -0.73154105
N        1.70130440       0.62935056      14.29436182      -0.13062366       0.20749311      -0.58558206       1.58832966      -0.27522613       0.28861504
C        3.24107053       3.37175342      12.18679959       0.33136815       0.45729663      -0.17076494       1.20559952       0.25624827      -1.14992437
N        1.14069327       3.23222981      13.31244903      -0.67675287       0.25994055       0.52650194      -1.43270406      -0.34321252       1.27638383
C        4.30934221       2.66005629      11.44113738       0.12705938       0.21932108      -0.21014332      -0.63437720       1.78716071      -0.16838291
N        3.12024080       4.78929196      11.99509903       0.71703615      -0.00622845      -0.25437371       0.26166132       1.02401782      -0.24608866
N        5.09339206       3.29751815      10.54661894       0.53345456      -0.24601979      -0.54245549       0.13307434      -0.56356861       0.04361106
N        5.44332701       0.58921668      11.02122958       0.11620795      -0.20182162      -0.36141132       0.85945556      -2.19981122       0.96827065
O        0.51530457       0.89696873      14.35836239       0.18149145       0.62147052       0.81887409      -0.03537913       0.30080878      -0.43538279
O        2.20710179      -0.20511215      15.04701873       0.59551626       0.02281962      -0.38248712      -0.19316682       0.32067037      -0.44461599
O        3.97461840       5.43823846      11.34829985       1.40775905       0.90307264      -0.50077492      -0.91329078      -1.00722522       0.62189900
O        2.17186737       5.41774949      12.50817249       0.11460571      -0.29672069      -0.77470637       0.43205255      -0.62719418      -0.12553393
O        6.09106664       1.04468594      10.09047876       0.54052549       0.68668971       0.75019012       0.15694446       0.62747936      -0.78709468
O        5.71385540      -0.55213952      11.42266828       0.15393575      -0.55238595      -0.87199484       0.33909787      -0.02138311      -0.55669924
H        4.75654247      -1.07166021      12.64976504      -0.25514973      -0.15748511      -0.03188649      -1.04518431       0.50656937       0.50662977
H        3.60586724      -0.88300548      14.00265106      -0.04216616       0.17147153       0.13275981      -0.26829479      -0.57558664       0.47538714
H        0.96744576       4.22708373      13.25498325      -0.21780450      -0.13512772       0.07928938       0.58991842      -0.25019220      -0.42172457
H        0.46446291       2.69279361      13.85503232       0.15892928      -0.02541702       0.24393293       0.47336803       0.12716632      -0.39653901
H        5.77872205       2.72892318      10.01967606      -0.05994725      -0.02380749      -0.11369566      -0.77478098       0.48858751       0.70996685
H        5.10428495       4.31126262      10.44448003       0.17431292      -0.08727058       0.07476562      -0.41786497      -0.67390418       0.49022492
C        8.34204163      -0.02740178      15.87117509       0.45028643       0.66758988       0.18613629      -0.27913834      -0.86205763       0.67520799
C        8.97720818      -1.21012355      16.38143094       0.07908526       0.92901781       0.05272097      -0.54597070      -0.01667530      -0.35549223
C        7.01906546       0.13477130      16.24573185      -0.24053728       0.41773692      -0.46934829      -0.95502254       1.24916322       0.33389703
N        8.95981091       0.83621907      15.07296546      -1.53687342       0.78054407       0.51300843       1.82318717       0.18209449      -0.63610263
C        8.32093019      -2.18485799      17.20319141       0.58065776      -1.05064011       0.38538790       1.00660970       0.21350460      -0.82933176
N       10.33197282      -1.42154485      15.96228998       0.73760391      -0.55874676      -0.66934059       0.96201311      -0.50946700       1.85550620
C        6.92646468      -1.95118545      17.43396498       0.43532644      -0.37145089       0.09744116       1.07147697      -1.77865051       0.91720621
N        8.95682028      -3.31364134      17.58706131      -0.66405660      -0.20520689       0.22946772      -1.05170506       0.78270163      -0.12446170
C        6.26872676      -0.82936788      17.00310864       0.40356632       0.51335456      -0.00137993      -1.32897900       3.08832276      -1.13476155
N        6.18634230      -2.86910377      18.23340721       0.49581135      -0.63953554      -0.17718731       1.15453051      -1.63800368       1.86364135
N        4.98918482      -0.54375771      17.32289439       0.57428691      -0.04171525       1.18986621      -0.13994533      -3.42607706       1.80528424
N        6.41563300       1.46075191      15.87806089      -0.75335795       0.26156322       0.60301922       1.51805145      -1.45714916       0.60022219
O       11.12906893      -1.80841688      16.81968716       0.25429575       0.64654987      -0.54831552      -0.35503943      -0.31881773      -0.30414328
O       10.68537747      -1.18889388      14.82804501       0.74977251       0.94820888       0.28906931      -0.15904761       0.28393964      -0.97760774
O        4.99326064      -3.01663836      18.08502329       0.32022993       0.11398338       1.27521955      -0.50939903       0.14926058      -0.28154918
O        6.79640589      -3.53021618      19.12441786       1.74273052      -0.14544421       0.78182931      -0.47518235       0.88102721      -1.37150352
O        5.25299279       1.48385215      15.60713071      -0.97581320       0.38878475      -0.04796380      -2.01075989       0.05084516      -0.31449497
O        7.12505713       2.45248786      15.85167632      -0.02363144      -0.59538275       0.18501582       0.31792677       0.18504912       0.23577426
H        8.75866113       1.83277262      15.01607044      -0.28411575      -0.27867743      -0.13364060      -0.41835972      -1.03441864       0.30905295
H        9.88435448       0.52902482      14.77580630       0.12884037      -0.06815371       0.08622756      -0.46609743       0.43913746      -0.02614068
H        8.50392984      -3.95102735      18.18465234       0.02663064       0.12593509      -0.21622817      -0.85584669      -0.32548624       0.62853543
H        9.91855968      -3.49666460      17.50900430      -0.13794584       0.05195431      -0.10770153       1.09745176       0.59136904      -0.53015725
H        4.54049174       0.25651982      17.00940085       0.13857678       0.12284898       0.00030667      -0.57962208       1.35762627      -0.69995464
H        4.40972757      -1.27049735      17.85411045       0.03895880      -0.07181105       0.09355498       1.29030549       1.62844099      -1.38201206
C        6.53498316      -0.96444314      22.44266599       0.37035716      -0.81544274      -0.32714300       0.31553254       0.46947789       1.49704664
C        5.86898703       0.25442974      22.72893748       0.23966971      -0.18135408      -0.51921836      -1.08249960       0.63662073      -1.23920052
C        7.14713691      -1.59856321      23.59135086       0.41232625       0.04718846       0.42370886      -0.45518148       0.30418735      -0.01725350
N        6.53889744      -1.44789993      21.21981576      -0.26600541      -0.30920490       0.86020223       0.77930870      -1.49896178      -0.32931456
C        5.85234915       0.94523042      23.96921940      -0.23182301       0.14347625       0.06450854       1.18886934      -2.45322866       1.13887924
N        5.04726169       0.84583461      21.63740623      -0.41795958       0.13208044       0.88050045       1.29234665      -0.05619535       0.09426794
C        6.40640526       0.23036149      25.12237905       0.83756949      -0.96794634      -0.60673411       0.40067885      -0.09100789      -0.44391455
N        5.35734358       2.12810228      24.08881909       0.20996681       0.34630229       0.46138643      -0.13170487       0.91440789       1.04928922
C        6.98940948      -1.06769243      24.94496205       0.06359150       0.15600984       0.06825363      -0.04344223      -0.75930765       0.26629347
N        6.38189038       0.82471577      26.45426184       1.08711089       0.10539791      -0.87788060      -0.89704125      -0.02828420      -0.81362704
N        7.41457037      -1.77302699      26.01829472       0.13892553      -0.35824165       0.59936770       0.10012094       0.02976524      -1.74950908
N        7.65835908      -2.93667171      23.37738279      -0.55258935      -0.37351700       0.10285190       0.35852176       1.21723413      -0.71872887
O        4.01250232       1.41043246      21.93323142       0.63978275      -0.66346853       0.80132755      -0.09688543      -0.07711775      -0.36337121
O        5.46779761       0.79318148      20.46009235      -1.00824233      -1.30829227      -0.11835139      -0.63126114      -0.08696959       0.91062301
O        6.40820282       0.14980241      27.46593265       0.61203886       0.23083909       1.25636588       0.47445455      -1.18911943       0.27308832
O        6.23952332       2.02929391      26.55262669       0.59614013      -0.03361919      -0.62351107      -0.00551009       1.17612987      -0.55112644
O        7.62351963      -3.69668095      24.30835989      -0.53455874      -1.43719809       0.42443565       0.08635423      -1.45052274       1.24589429
O        8.14717425      -3.25127015      22.29228605       0.30525894       0.49596063      -0.68681430      -0.31867064       0.27347657       0.04162559
H        7.05842242      -2.31733699      20.98250373      -0.27311243      -0.14927425       0.15195163      -0.66320585       1.07945405       0.44538832
H        6.08052327      -0.89636703      20.51887910      -0.21856551       0.05506154      -0.08612084       0.18123616      -0.05047079      -0.30897068
H        5.43649096       2.61904031      24.96133558      -0.07806777      -0.11136698       0.06787400       0.12999903       0.02627737       0.16361624
H        4.95463367       2.53946849      23.30421560      -0.10297346       0.02704508      -0.11603046      -0.74396514       0.99493124      -0.95158809
H        7.79410232      -2.69073397      25.81296365      -0.07805183      -0.15960835       0.09204868      -0.26876282       0.28421470       0.26876718
H        7.24169696      -1.44852465      26.94935234       0.03497092      -0.11582518       0.27585158      -0.07914064       0.26490576       0.05151638
C       -4.42502601       9.87002505      -0.65703743      -1.14567468       0.18814283       0.77181615       0.51373604      -1.53932304      -1.26720440
C       -4.39694239       8.60370292      -1.35187516      -0.02468149      -0.01563879       0.22063598       0.52617314       0.90382654       0.34306491
C       -5.68484138      10.37411543      -0.31803054       0.53249728      -0.36707652      -0.52870493      -1.32567554       1.10870776       1.73093898
N       -3.31154887      10.52652531      -0.44004921      -0.33782798      -0.09196626      -0.20302752       1.31892751      -0.11572275      -0.25340782
C       -5.56996336       7.84040571      -1.58318469       0.85285142      -0.34312983       0.34405214       0.91113069       0.09814495       0.73650287
N       -3.06973915       8.14855620      -1.83208183      -0.77788008      -0.31961056      -1.43898702      -0.86363325       0.17250332       1.16836036
C       -6.78775959       8.30101985      -1.00332477       0.59210143       0.41677371      -0.39699144      -1.44445383       1.27215810       0.31220890
N       -5.54284259       6.66202224      -2.16790966       0.12810350       0.13337782      -0.39266055       1.36126053      -0.69524758      -1.30420890
C       -6.88125389       9.59471997      -0.35903305       0.72544313      -0.08433103       0.35829042      -0.91520590       0.41855460      -0.90071077
N       -8.02211332       7.55527441      -1.21767452       0.16047469      -0.41020216      -0.06054233       1.26955963      -1.04309301       0.17932644
N       -8.11286518      10.06540106       0.02886074       0.48661827      -0.41623460       1.32915338       2.08339039      -1.81965213      -1.10227179
N       -5.75382192      11.61244680       0.47489590       0.10994454       0.75414084       0.60894202       0.08611030      -0.87960876       0.31895275
O       -3.02465927       7.62182708      -2.91070501      -0.44285550      -0.52155471       0.37082137      -0.09265759      -0.74665266      -1.19058480
O       -2.06610620       8.29177077      -1.12784965      -0.99416243      -0.43862894       0.31268312      -0.46209899       0.23423402      -0.13755841
O       -9.12910038       8.01586919      -1.05325606       0.77675613       0.58060727      -0.62293792      -0.88575563       1.12882088       0.19416550
O       -7.94044321       6.37278900      -1.53743355      -1.21509129       0.51378645       0.32143060       0.21081541      -0.58959722      -0.19499792
O       -6.84280297      11.99178324       0.88054099       0.37815273       0.35653459      -0.95884787       0.44386688       0.46493426      -0.05773860
O       -4.71010421      12.17899963       0.81340432      -0.13041674      -1.37816554      -0.37950819      -0.53760907       0.30194221      -0.74970230
H       -3.37496324      11.44935532      -0.07945251       0.06208111      -0.01610868       0.10140522       0.16297290       0.35746867       0.34161953
H       -2.39919183      10.11992390      -0.66055508       0.05822845      -0.15799353      -0.18673990      -0.83490006       0.16512026       0.16820016
H       -6.36513085       6.11282012      -2.02947068       0.04378628       0.03065399       0.18828910      -0.23978913      -0.48294501      -0.36887916
H       -4.78307844       6.35351558      -2.78300509      -0.03843314      -0.08917489      -0.13405415      -0.44459617       0.47715753       0.84910318
H       -8.23611443      10.78598862       0.67707581      -0.04333276       0.05104042       0.03562628       0.24728863       0.95775364       0.53188673
H       -8.82061290       9.40369639      -0.19501536       0.14216809       0.11312438       0.14461297      -0.93544192      -0.06193673       0.17202774
C       -4.54819532      11.92418149       3.51346774       1.12487093       0.91605139       0.07909122       0.79943392      -0.58009935      -1.03235498
C       -3.51091930      12.90941495       3.32157506       0.01735604       0.13140657      -0.04844881       1.25409177      -0.45007596       0.40718724
C       -4.19405950      10.59103633       3.17747075      -0.17032290      -0.12654022      -0.22203905      -0.85604376       0.04317533       0.18179882
N       -5.76926405      12.26320303       3.84660902      -1.09294349      -0.19232228       0.13769408      -0.14105059       1.54480917       0.83000707
C       -2.11088507      12.52236120       3.14054017      -0.62832816      -0.09776544       0.35182838      -0.82372900      -1.88944240       0.20474079
N       -3.82797928      14.27619684       3.42816300       0.35907658       0.50992877      -1.09183287      -1.33583365       1.03568194      -0.74149988
C       -1.83259171      11.06841544       2.86664005       0.06362235       0.16925760      -0.27246559       0.16176867       1.96319698       0.18500801
N       -1.13371325      13.41715429       3.27473211      -0.07687262      -0.56804481       0.14937629      -1.20184972      -1.06420646      -0.42908980
C       -2.91503574      10.15246824       2.77699217       0.71434166      -0.23246773       0.06439143       0.00996735      -1.34403055       1.08168465
N       -0.45617983      10.55344932       2.72334683       0.84275094      -1.49547439      -0.24214191      -3.12458411       3.05046856       0.87410489
N       -2.80695296       8.79825219       2.61288522       1.50600482       0.77903036      -0.09093294       3.25072439       1.42724507      -0.60429325
N       -5.22394854       9.58461310       3.22570919       0.38860102       0.56509468       0.49825119      -1.20621715      -0.27009305       0.29648814
O       -2.99207181      15.15455931       3.34177538      -0.23382048      -0.67490446      -0.70541851       1.97222419       0.22466067       0.05370682
O       -5.00360054      14.66470154       3.49284195       0.29893478      -0.81457243       0.42614483      -0.83429181      -0.98671924       0.55911709
O       -0.37602141       9.42356858       2.36829854       0.02952058       0.91025952      -0.71562753       1.77119237      -2.39897037      -0.78238026
O        0.47757843      11.29712299       2.98355680       0.01008164       0.02060156       0.42555086       0.46650704      -0.09936366       0.00546027
O       -5.24728850       8.70001104       2.35291931      -0.49857410       0.07084924       0.23493798      -0.69830075       0.61555888       0.81310554
O       -6.08546994       9.62033161       4.12730907      -0.26368609      -0.05427685      -0.08337940       0.89067160       0.13402654      -0.98269458
H       -6.46341784      11.58546788       4.09921726      -0.03265486       0.11797365       0.02036198       0.07583937      -0.13612544      -0.06958225
H       -5.89368951      13.28939294       3.94868756       0.07400123      -0.30230318      -0.07189045      -0.26142372      -1.03970277      -0.24698784
H       -0.25013396      13.04209498       3.04628138      -0.13923336      -0.14389871      -0.06707219       1.25039017       0.04978126       0.00611216