1296
Lattice="857.4095155717962 632.9541608051254 265.19486100898894 0.0 341.0837710647527 -514.721295588845 0.0 0.0 119.99295560737158" Properties=species:S:1:pos:R:3:momenta:R:3:forces:R:3 energy=-1487657.1555503393 free_energy=-1487657.1555503393 stress="2.1318752345678103e-06 5.219794195738593e-07 -3.2970254004981496e-07 5.219794195738593e-07 1.6444352383378819e-06 -8.094108496551605e-07 -3.2970254004981496e-07 -8.094108496551605e-07 3.879368349942666e-06" pbc="T T T"
C     -905.20664854   -1063.68392746    -318.17627658      -0.57268560      -0.36560828      -0.47286355      -4.04638306       1.04195698      -2.27649095
C     -905.74140243   -1064.17198377    -319.55005534      -0.50030687       0.07172042       1.59733982       1.60697214      -0.35315167       3.77606053
C     -903.81229615   -1063.54446252    -318.03674697      -1.38375490       0.15640852      -1.69311539      -1.11661569       1.74277207       2.93883078
N     -906.17049690   -1063.27279760    -317.30141651       0.90487666      -1.31124851       0.03597787       0.54906203       0.00363537      -0.79200891
C     -904.97719681   -1065.20520048    -320.14434104       0.07442727      -0.20566076      -0.11323650       1.19033569       3.33415177       2.14906926
N     -907.08040861   -1064.13283315    -319.87231730       0.13872354      -1.30977456      -0.82177010      -0.26105049      -2.11930426      -1.89446776
C     -903.72022605   -1065.34566800    -319.48767463      -0.57581624       0.19461237      -0.51032221       1.66108016      -0.69540472      -2.03132088
N     -905.27325835   -1065.71289545    -321.28942501      -0.51125220       0.25237012      -0.92134918       1.18755522      -1.75232164      -2.32947671
C     -902.97148586   -1064.44520173    -318.63983114      -0.44866405       0.42818133       0.70248043      -2.04166761      -2.35587133      -2.16965379
N     -902.94461199   -1066.24120003    -320.30344273      -0.36897687       0.23428693      -1.27319201       3.65183947       0.86773942       1.03910136
N     -901.68852705   -1064.53505786    -318.38452423       1.41926256       0.19150584      -0.98385259       3.21648656      -1.48570635       1.70258887
N     -903.44458957   -1062.88090811    -316.77375556       1.70787255      -0.71297400       1.74138588      -3.46200350       1.68510328       2.83284144
O     -907.46263625   -1064.79783656    -320.83115862       1.00819692       0.89779669      -1.71941494      -0.01506368      -0.94658435      -1.93932125
O     -907.93304145   -1063.57735442    -319.28766766       1.55682740      -0.20460196      -2.24099240      -2.13346266       3.44486370       3.74727009
O     -903.40832636   -1067.27039576    -320.68141953      -0.56093577       0.33691607      -1.52681870      -0.60044391      -1.87618751      -0.56553100
O     -901.76218557   -1065.91824129    -320.55342043      -0.16149636      -1.26950547       0.33651187      -0.89800743      -0.28408752      -0.10620595
O     -904.24455797   -1062.04709870    -316.24041589      -1.81819131       0.22781798       0.90717468       0.31695725      -0.14294650      -2.65853057
O     -902.58487489   -1063.21439886    -316.01761628       0.09395918       0.12408666       1.36258970       3.43859152      -2.05370771      -0.79334309
H     -905.92175844   -1062.54709680    -316.61687688       0.08135067      -0.11971738      -0.30579999      -0.03957264      -0.82977477      -0.42215834
H     -907.16594070   -1063.38773151    -317.57888118       0.27568199      -0.37684929       0.05771021       1.36413845       0.21374988       0.00526299
H     -904.62193710   -1066.17435393    -321.90680101       0.02861291       0.54813637       0.03955728      -0.02781082      -0.12735539       0.76764571
H     -906.20831007   -1065.73062278    -321.56578203      -0.17480120       0.20568725       0.51942997      -1.55298418       0.52138730      -0.37121053
H     -901.50791291   -1064.42428725    -317.38381097      -0.05475253       0.00121056      -0.28420594       0.05548394       0.81045937      -0.44478059
H     -901.01478467   -1065.26788300    -318.75091244       0.02933118      -0.10338738       0.11386402      -2.04343675       1.35658456      -0.16417070
C    -1714.13847861   -1288.66121951     959.51218675       0.36268492       0.46442621       0.98955502      -3.37976382       2.67982167       3.03627280
C    -1714.49659356   -1289.67765987     960.52145592      -2.55668795       1.05034756       0.94810016       3.97019333       1.48488563     -10.82451629
C    -1714.48135894   -1287.26403548     959.78627726       0.26768489       0.12818880      -0.14880258      -0.97310616      -3.92383429      -0.76550471
N    -1713.47464040   -1288.84385825     958.38536143      -1.48698499       1.78058393      -1.85189245       1.45455880      -2.99714328      -4.58049215
C    -1714.90428106   -1289.35619202     961.65278157       1.34931841      -0.50243716       0.57293431      -2.42382235       0.84672954       7.58561127
N    -1713.73349379   -1290.79204131     959.98599107       0.75936694      -0.99883664      -0.60839769       3.50938654      -1.41446612       3.25551925
C    -1715.54670583   -1288.04370919     961.72146939      -1.77018514      -0.61595827      -2.23183124      -0.23672306       3.05454449       0.68139662
N    -1714.54844226   -1290.36298923     962.66428036       1.30629201       1.40485387       1.75323195       3.17073222       7.81299529       3.16496917
C    -1715.25995680   -1286.90682332     960.85481177       0.64370734      -2.01818906      -0.73635778      -0.56847666      -1.01733785       2.24930437
N    -1716.71727446   -1287.74841258     962.66557712       0.37050438      -1.28374260       0.39984787       3.08130035      -7.43887799      -3.17650327
N    -1715.59147202   -1285.54514085     960.99346751       2.98863325       1.39817906       0.34541939       3.16918289      -0.40899505      -3.05089487
N    -1714.63034097   -1286.40175043     958.66352897      -1.26687756      -1.38164120       3.59432183       1.74151466       0.82930613      -2.34807198
O    -1712.55561103   -1290.84132693     960.39583565       0.65389846       0.42876495       1.35454039      -1.59206426      -0.06002593      -0.53563024
O    -1714.17309767   -1291.53011355     959.16059667       1.08880643       0.63037039       1.02078328      -1.20611989      -0.51959962      -0.91686986
O    -1717.39928366   -1288.77298665     962.70851776      -0.88427628       1.40388309       1.45310853      -1.14185389       0.79572285       0.81710764
O    -1716.78656858   -1286.78368313     963.26881771      -0.55447858       1.63477014      -0.20139356      -1.07583987       4.89328091       2.63369622
O    -1715.70381594   -1286.17389579     958.09450223      -1.12384698       0.03668584       2.23744874       1.39261265      -0.42139918       1.14365256
O    -1713.53246809   -1285.97514288     958.30157321      -1.29593392      -0.10413091       0.55386461      -0.80719950       0.50940725      -0.50166431
H    -1713.35680272   -1289.70312836     957.73529638       0.20014630      -0.08828075       0.24330514      -1.09871760       1.50603310       2.34845365
H    -1712.57860501   -1288.45819748     958.42910390       0.00558654       0.50113706       0.16547930       1.29478461       1.44940440      -0.26219689
H    -1715.05240769   -1291.11920801     962.60402233       0.14504333      -0.41421757      -0.83403183      -3.29769615      -4.95139224       0.15111867
H    -1714.23780744   -1290.00600421     963.70477835       0.21004834       0.02222988       0.30614487      -1.69976290      -1.26169199      -3.88492001
H    -1715.36316492   -1284.92508222     960.14148064      -0.23435503      -0.27249930       0.07391739      -0.31883221      -1.79569901       1.97162105
H    -1716.42397597   -1285.24301512     961.32977682      -0.30499209      -0.52464422      -0.03447418      -2.96428773       0.34833129       1.80854130
C      675.96009226    1087.16182741   -1262.09069579       0.49972595      -0.46090934       0.05703250      -0.46313429      -0.30516948      -0.04037098
C      676.08704476    1088.18640226   -1263.06068402       0.38338194       0.32271473      -1.92550441       1.66683456      -2.64142220       1.90709650
C      677.15678109    1086.37820572   -1261.96494891       0.65064512       0.31870839      -0.20653300      -2.04783890       0.56655179       1.29941070
N      674.75167015    1087.04875780   -1261.37477317      -0.17952547       0.99072755       0.29618987       3.16983993      -1.00187169      -0.60437084
C      677.21793930    1088.39760632   -1263.86175497       0.96406553      -0.24674714       1.86707792       0.00447127       1.11663321      -1.69031864
N      674.92776864    1088.89674769   -1263.26352156       0.55339249      -0.75789308      -0.81937028      -3.06307581       0.80882570      -2.69314073
C      678.25437786    1087.38070217   -1263.92953759      -0.08984713       0.81774642      -0.80097330      -1.44768882       1.85153258       0.14745800
N      677.16268005    1089.48600605   -1264.66569995      -0.92027916      -0.80785109       0.48541317       1.11967964      -1.09681758       0.35717318
C      678.19674036    1086.46693250   -1262.91471591      -1.89655132      -0.90247447      -1.40092949       1.32553111      -3.61571653       1.97160642
N      679.24306207    1087.41160949   -1264.99006670       0.56009908       0.33127323       1.47894361      -2.41340564       4.58281367      -0.45515956
N      679.17610766    1085.48059461   -1262.79047859       0.37332245       1.03372649      -2.77348318       1.18257679      -2.74714969      -2.31215307
N      677.14885197    1085.48994585   -1260.78317647      -0.18528640      -0.86481855      -0.51971798       0.45787980      -1.46068706       0.83264887
O      673.93304808    1088.27064362   -1263.66488386      -0.35276867      -2.19059220      -0.31447588       0.55527097       0.21156321       0.58291542
O      674.93143014    1090.09792918   -1263.20614410       1.44130909       1.38041421       1.18324829       0.21265347       1.38663346       0.60846931
O      679.22662143    1088.52162038   -1265.64653820      -0.50125529      -0.29447932       1.90166903       1.08578678      -2.80793521       1.11536093
O      679.91226279    1086.48827518   -1265.25325506      -1.85326142      -0.24729257      -2.65418550       1.46722538      -1.90000832      -0.45831889
O      678.22312224    1085.22286766   -1260.18181464      -0.33529618       1.44894971       0.76184912      -2.27886447       0.68606688      -1.43223029
O      676.04082096    1085.01436459   -1260.41914230       0.90654788      -0.60079397       0.67744768       2.44366362       0.95284784      -0.73659285
H      674.46783550    1086.10742815   -1261.06871901       0.15138152      -0.18238771       0.16184268       0.42345999       1.18950504      -0.17312828
H      674.11002493    1087.72774959   -1261.68050947      -0.29546122      -0.16128717       0.24806124      -1.23945815      -0.02910403       0.07739783
H      676.36128805    1090.02771327   -1264.66062041      -0.02544184      -0.03147845      -0.17145586      -1.40360447       1.15232730       0.25463384
H      677.95107174    1089.85063198   -1265.15818141       0.00689673      -0.20120204      -0.21738018       0.28038611      -0.63113267      -0.14523702
H      679.30371087    1084.79384075   -1263.64132661       0.24075686      -0.51941564       0.24607761      -0.17204453       2.56228298       1.98340829
H      679.31093873    1084.90034871   -1261.95044441       0.05929487       0.03815629       0.02722621      -0.86614435       1.16943080      -0.39655814
C    -1011.46279673   -1411.38212259     595.91692755      -0.68962398      -0.33663279       0.08574606      -0.66002121      -0.88664808      -0.26493980
C    -1010.57617228   -1412.28700714     595.17497050       0.60777526      -1.41901655      -0.29560874       1.84929643       3.19180587       2.15574002
C    -1011.04047369   -1410.15947888     596.54204335      -0.59342006       0.24340897      -1.02335474      -0.51281352      -1.35558731      -2.78027137
N    -1012.74935546   -1411.74876763     596.08053896       1.04292035       0.24293066       2.89577284       0.64034081       5.66299153       1.60889488
C    -1009.13851924   -1411.91982863     595.25018066      -1.49588691       1.03800055      -0.14493001      -0.70353026      -0.10125099      -1.71190230
N    -1011.05601475   -1413.41661453     594.55956723      -0.12319610       0.84399601       0.34619824       0.39389016      -3.19160391      -1.75999620
C    -1008.86867289   -1410.59961883     595.65648839       0.09390004      -0.27811259       0.50361886       1.18132191      -0.26900989       0.62322542
N    -1008.07363188   -1412.64611858     594.78820198      -0.64952509      -1.10755724      -0.89522048      -1.25220741      -0.19762754       1.15477920
C    -1009.78500473   -1409.69567072     596.22355744       0.44456159       0.30842603      -0.02465672       1.96853752       0.97890551       2.98773154
N    -1007.35844943   -1410.29767913     595.69730698      -0.02457799      -0.54678693       0.27822312      -0.42061440       2.33969899       1.51660706
N    -1009.39351302   -1408.49063988     596.80247485       0.67444011       1.61553874      -1.05993618      -0.57694928      -0.04097518       0.62738040
N    -1011.95232032   -1409.31659645     597.33381593       1.02355700       0.79821598      -1.62073017      -1.05983877      -2.85814806      -3.10131951
O    -1012.26754193   -1413.57263548     594.33156736       0.82277319       0.21291052       0.38293112       1.67697694       0.15943406       0.50232814
O    -1010.19189528   -1414.30014086     594.19065965      -0.86890392       0.41509011       0.21039238      -1.67273158       2.01554981       0.82979754
O    -1006.82874657   -1410.33920237     594.62036483       0.47968971       0.24590004      -0.90426436       0.72547846       0.03359181      -0.55514925
O    -1006.76294308   -1409.91630576     596.73604819       1.27563422      -0.53546206       0.76612431      -1.81493479      -1.08867003      -1.63464936
O    -1011.58154022   -1409.11835136     598.41721603      -1.43382318      -0.88229080       0.70694993       1.60593895       1.80889531       4.46549684
O    -1013.07370622   -1409.08919813     596.93997792      -0.50275975       1.15523254      -0.40206657      -0.51948345       0.53800667      -0.75323076
H    -1013.24144252   -1411.09496227     596.71020884       0.05270509      -0.52249063       0.04441386      -0.02821676      -1.04151229      -0.89864945
H    -1013.02137114   -1412.63904980     596.10097363       0.26867465      -0.01055552      -0.01785912      -1.09078436      -4.17234979      -0.46587125
H    -1008.29997964   -1413.61901711     594.49235905      -0.02999971      -0.69939061       0.06555210       0.61656562       1.20894752       0.59632088
H    -1007.18611492   -1412.23679614     595.14721559      -0.27784631      -0.25401441      -0.47575288      -0.97853258      -1.98965558      -1.23730647
H    -1009.88688579   -1408.25423486     597.72067439      -0.08694669       0.02581034      -0.05681657       1.27980819      -0.45552383      -2.10063082
H    -1008.40794296   -1408.23571787     596.75133098      -0.03527979      -0.21166817       0.23987430      -0.64749660      -0.28926459       0.19561462
C     1230.50452107    1485.44686922    -479.86715720      -0.20583381       0.00436509      -1.01936003       4.32246715       1.23753034      -2.55527676
C     1229.40645985    1485.03892030    -479.12715825      -1.30609264       0.03659895      -0.31989477      -0.15658390       0.21450491       1.45848037
C     1230.88245843    1484.89224606    -481.20111967       0.70350006      -1.88375171      -1.63565361      -2.06329354      -2.02902891       1.16097631
N     1231.35427132    1486.40081207    -479.42470710       0.31833046       1.10897332       1.40694041      -1.73108046      -1.50024178      -0.76295492
C     1228.75931336    1483.82738077    -479.52371224       1.62007787      -0.84973677      -1.09510721       0.61983453       0.64503888      -1.66207623
N     1229.05641177    1485.76492288    -477.89054354       1.63350110       1.51983619       0.41550962      -1.02525334       3.54663246       2.04180971
C     1229.26235045    1483.13070177    -480.72265828       0.27691526      -0.34476719       0.59377608       0.86980800      -0.59197383      -0.93950828
N     1227.68215216    1483.49006076    -478.89205069      -1.17425812       1.20386853       0.78024785      -1.03604701      -0.54156542       0.76904632
C     1230.28108130    1483.62530568    -481.65294466       1.57165227      -0.00905297       1.19140880      -0.57692647       5.09448160       3.60817379
N     1228.74388601    1481.85977675    -481.11385094      -1.46506153      -0.06689516       0.40793190      -2.87916441       0.12485277       2.67733223
N     1230.44384980    1483.24212495    -482.88378527       0.15277472       0.51787939      -1.65190013       1.31273729      -2.79079300      -2.73275990
N     1231.83126106    1485.58383869    -482.12734345       1.36490141       0.37297085      -0.83054082      -1.97199799      -1.33243438       0.11605813
O     1228.02946468    1485.46114324    -477.21107399       0.23172908      -1.16081404       0.28407020       2.42164618      -0.13592223      -1.89392337
O     1229.66441073    1486.91233019    -477.50136516      -1.39779993       0.62978374       0.26202693      -1.36044832      -4.79700888      -2.21137830
O     1229.19746371    1481.17713504    -482.00826950      -0.28069905       0.35680242      -0.44754089      -0.06567796      -0.16364505       0.07016813
O     1227.72526686    1481.48647614    -480.43388471      -0.67593336       0.63808758      -0.31685235       1.63104449      -0.22389920      -1.54539148
O     1232.95216833    1485.75983281    -481.76427710       2.66320692       0.27968254       2.32594513       2.15824744       0.69638541       1.36472756
O     1231.45157059    1485.83628500    -483.24296289       0.73156087      -2.07622739       0.00661150      -0.60917919       0.22567455      -0.48343316
H     1231.02371894    1486.80835975    -478.57114901      -0.23366633      -0.41517999       0.26349608       0.47473197       1.02236153       0.53112530
H     1232.14764838    1486.58002952    -480.00095308      -0.10591156      -0.46769543       0.01536760       0.40831550       0.40878508       0.28298495
H     1227.22871395    1482.65244062    -479.18735427       0.02739571      -0.27411729       0.46500349      -0.27326165      -0.50257782      -0.15869251
H     1227.34617062    1484.08516221    -478.14011244      -0.39141741      -0.40171896       0.34444286       0.23877496      -0.12036485      -0.02203539
H     1231.40540589    1483.18952191    -483.28355918       0.00880306      -0.00934055       0.42886251      -1.33110897       0.80088987       0.48660655
H     1229.90796984    1482.40782776    -483.16984369      -0.74029524      -0.21412110       0.33538753       0.62241568       0.71231793       0.39994097
C     1391.51997008    1052.88834340      11.07277291       0.55198167       0.16102655       1.08747442       0.73202807      -2.98628924      -0.96236099
C     1390.27602057    1053.23180888      10.46916616      -0.56937384      -0.33500365       0.89254191      -0.44769259       2.07554177       1.37186792
C     1391.44672688    1052.28858741      12.33109187       0.30197005       0.85691217       1.17062429      -0.69302583       0.30529329       3.62803074
N     1392.62331455    1052.73743375      10.34481996      -0.06918369      -2.46098426      -2.05606124       1.34178891      -0.53659387       0.68023477
C     1389.24602629    1053.61228593      11.33602913      -0.51619492       1.93896652       0.23455736      -2.77125116      -1.01334289       1.28668110
N     1390.11898688    1053.43617394       9.07747024      -1.28934120       0.28843259       0.07890265       1.02571052      -1.76227718      -0.17800188
C     1389.27036956    1053.29841061      12.74859134       0.79989345      -0.86993031      -0.11485913       4.06156809       0.66830862      -0.11419554
N     1388.05680564    1054.10361179      10.93463070      -1.17003048       1.96157411      -0.78241094       1.50172100       0.64651001      -0.73016991
C     1390.44746252    1052.67396720      13.32609659       0.30229465      -1.49166920       0.68982839      -0.70051414       0.86934151      -2.51354658
N     1388.26237183    1053.83189659      13.58048164      -0.55305182       0.23155552      -0.10518185       0.58905843      -0.80252595       3.49915042
N     1390.55932335    1052.54032316      14.63957824       0.44965545      -0.47048773      -0.81104104       2.49888120      -2.61074348       0.02854263
N     1392.40891199    1051.34993751      12.89433858       1.13509974       0.34333407       0.33941108       2.58657428      -2.00251459      -3.07569520
O     1391.09418281    1053.08897331       8.41855984       0.98760617      -2.28515590      -0.12610791       0.09197839       0.70844502      -1.34089597
O     1389.06354557    1053.71305581       8.56400215      -0.99783123      -0.30034934       0.05723628      -0.82147874       0.62061694       0.02075654
O     1387.15568544    1053.61716715      13.15386346       0.31551034       0.91264742       0.14141075      -1.82513930       0.89870289       1.37074606
O     1388.50543952    1054.28926783      14.76316927       0.32583212      -1.10120463       0.06811343      -0.53163030      -0.92219244      -3.50448556
O     1393.59020607    1051.24577110      12.42929664       0.56174060      -1.25578186      -2.12394802      -2.07957806       1.37075304       0.82640189
O     1391.97523708    1050.43783801      13.57123051      -0.48261463       1.50855269       0.99926129      -0.51392043       0.75149715       1.10769122
H     1393.29867247    1051.95849420      10.45152330       0.39920960       0.07345222      -0.55162361      -0.80052730       1.28753279       0.61080485
H     1392.55964585    1053.17417573       9.46799663       0.01353605       0.05693406      -0.36063459       0.15880747      -0.02635153      -1.22388198
H     1387.42226337    1054.36644461      11.63629582      -0.34945881       0.09478813      -0.22279413      -0.79118459      -0.02240387       0.34666559
H     1387.65838843    1053.81838749      10.08835454      -0.17230769       0.38245679      -0.28764970       0.02764426       0.08843635      -1.49446542
H     1391.31019973    1052.02327063      15.14511504       0.02455702      -0.05979414      -0.11303521      -1.01774426       0.62709191      -1.37800663
H     1390.12305916    1053.23453331      15.12837242       0.02822227      -0.28042459      -0.26441177      -1.62207391       1.76716376       1.73813190
C     1002.15006740    1356.02934151    -927.45792538      -0.04117835      -1.60645430      -0.77944936      -0.20615845       2.73025277       0.67040970
C     1003.05929415    1355.65960003    -926.34837271      -0.59620178       1.04527128      -0.41599372      -1.74744714      -2.19117794      -0.29786244
C     1001.35860935    1355.06153939    -928.15323620      -0.11764072       0.40808652      -0.96709988       2.07960514      -1.25658378       2.43488093
N     1001.99391722    1357.36131498    -927.62303958       0.36155026       0.83305429      -0.53178737       1.89017768      -1.99911956       2.13020938
C     1003.27889683    1354.27413115    -926.12182244      -1.37440597      -0.48436231      -1.02296984      -0.15945735       1.25421935      -2.12742975
N     1003.56721063    1356.53433247    -925.39810363       0.87121148      -0.15202399      -2.07532322       4.71032595       1.89535612       1.41760985
C     1002.73040863    1353.37159055    -927.07323787       0.08653886      -0.60716058       0.66911859       2.22640387      -2.00547246       2.56370804
N     1004.06183150    1353.81304443    -925.22481574      -1.12308192      -1.17370254       0.16699460      -0.28941136      -4.28323529       0.59524979
C     1001.60188354    1353.72041504    -927.70732098      -0.55099867       1.58485061       0.66212486      -5.51227168       0.46424627      -4.26159230
N     1003.16128810    1351.95965269    -927.08558363       0.94056688       0.21737492       2.25843876       1.88560447       0.72436009       0.07380649
N     1000.63874015    1352.83905334    -928.08440686       0.57686913       1.46501302       0.42915201       1.57854216       0.60301593       1.18178836
N     1000.26294875    1355.36920817    -928.99760162      -0.54907387      -0.40139569      -0.63338882      -2.20246497      -1.45863851       2.06276224
O     1004.26493627    1356.23313760    -924.35057162      -0.04720336      -0.50082171      -0.14622595      -2.67849856      -0.77619800      -2.27018205
O     1003.68154279    1357.71875613    -925.74564839       1.07750921      -1.28998992       0.26855379      -1.36938590       0.63635824      -0.03196968
O     1002.51833458    1351.20867153    -927.74684105       0.18935490      -1.77780289       1.61213047      -1.23372828      -1.72717877      -0.96260237
O     1004.24251677    1351.56718910    -926.60038938       0.41754573       1.21185323      -0.60577512      -0.90270088       1.13214881       0.43067816
O     1000.36836794    1356.35551625    -929.60988496       0.18618612       0.54177009       0.15604489       1.55351132       4.82554055      -2.92490712
O      999.16507617    1354.79884234    -929.02865916       0.21334484      -0.41126689      -0.75054842       0.83022157      -1.51478798       0.64118454
H     1001.44147139    1357.55839218    -928.39858998      -0.24839511      -0.03867592      -0.08901728      -0.91231996       1.26178593      -1.20060182
H     1002.59998813    1357.91397078    -926.92051679      -0.25967343      -0.42806869       0.00802344      -1.23814172      -0.43259513      -1.79685949
H     1004.73701169    1354.34484516    -924.79665989       0.03691803       0.11192090      -0.34972319       1.26801323       1.51435852       1.50940949
H     1004.10375848    1352.76895001    -925.24866803      -0.35459903       0.56139418       0.18442974       0.79183669       1.48924490       0.33985744
H     1000.84131721    1351.94676210    -927.78562014       0.06868866       0.03575900       0.12732451       0.23238872      -2.17330484       0.34562492
H      999.91488488    1352.89084731    -928.74817016       0.61248041       0.21611690       0.05057753      -0.59464455       1.28740478      -0.52317232
C      216.62216989     462.69301077    -806.74807145      -1.05303753      -1.56661694       0.32331782      -1.97219384      -0.04108003       0.27841086
C      215.47349692     463.53072799    -807.13109508      -1.35691200      -0.66900492       0.12933616       1.36552622       1.22055241       1.78650099
C      216.40973117     461.59554223    -805.82675300      -0.97603632      -0.15228444       0.51379851      -3.27123608       0.37426631       0.43480244
N      217.79489196     462.93132197    -807.27830536      -1.54181998      -0.09486939      -2.53914755      -0.31745690       3.04211831      -1.85185461
C      214.28093934     463.38599524    -806.41912915       0.86675505       0.09009904      -1.26849498      -2.22522510       1.79602642      -1.14788473
N      215.65270473     464.87444465    -807.72643249       0.77558348       0.10923848       0.53697276      -0.56756976      -0.77353807      -4.72664017
C      214.08782131     462.24463184    -805.63487435       2.31385395      -0.66619302       0.17297070       0.06307786      -4.26356776       1.49822204
N      213.21819747     464.22582555    -806.63876959       2.08329917       1.44881420      -0.24354268       0.81458867       0.82015148      -0.25313170
C      215.04674663     461.21243621    -805.34087499      -0.54797385       0.22510903       0.73191250       3.02628368       1.94415369      -2.59108797
N      212.83008748     461.91808041    -805.07774766      -0.56740732       1.03142528      -0.52355570      -3.27839184      -0.48575960       1.43846721
N      214.86636192     459.97560450    -804.87765348      -0.06249781      -1.36543650       0.02243149      -2.79545244      -0.02693230       0.34110261
N      217.37078777     460.62913568    -805.36869203      -2.24179924       1.05161137       0.66778275       2.13806958       1.25268571       1.39957838
O      216.62237768     465.03150787    -808.51776328      -0.36556021       0.03048202       0.76121249      -0.08710177      -0.28902196       2.22716594
O      214.67215796     465.64427045    -807.90497530       1.52530767       0.60199975      -0.52020092       2.01859904      -0.37951704       1.20030780
O      212.35585766     460.77052429    -804.76531088       0.63001573      -0.62520122      -1.64636402       2.25011456       1.78310021      -1.22557956
O      212.12169619     462.88425764    -804.83311670      -0.54162539      -0.20123487       0.41898714      -0.62792913       0.11680302       0.35697295
O      217.59780323     460.65091780    -804.08602839       1.67965742       1.26922794       0.60979646      -0.53888274      -1.16185798      -4.53076174
O      217.93996070     459.97915887    -806.25945374      -2.25288877      -0.06158311       0.57257473      -0.30962894       0.43663322       2.22557899
H      218.09816335     463.77353857    -807.84126026       0.44609456       0.22544609       0.22589381      -1.33966009      -1.50616301       1.06975704
H      218.45246407     462.33431060    -806.98157815      -0.16858742       0.32003231      -0.02123785       3.31832407      -2.34896248       0.95253475
H      213.28870392     465.18908798    -807.09600719       0.03374622      -0.32796155       0.42637436       0.52867435      -2.54782080       0.84853935