24
Properties=species:S:1:pos:R:3:forces:R:3 energy=-27552.893081450664 free_energy=-27552.893081450664 stress="-9.806588704024337e-09 1.2265474401372905e-09 -2.646535355072338e-09 1.2265474401372905e-09 1.1549361747304883e-08 -8.316044556598843e-10 -2.646535355072338e-09 -8.316044556598843e-10 3.468194462401614e-10" pbc="F F F"
C        0.72428586       1.25289622       0.03093742       0.00224717       0.00407175      -0.00449631
C        1.42871152       0.00061259      -0.06208186       0.00016893      -0.00003562      -0.00053842
C       -0.71114656       1.23129975       0.02823473      -0.00021336       0.00241582      -0.00320039
N        1.37699786       2.39495644       0.08465257       0.00260134       0.00234632      -0.00285499
C        0.72470091      -1.25215621       0.02471311      -0.00011213       0.00028935      -0.00443560
N        2.85664327      -0.00015128      -0.19503282      -0.00259992      -0.00372133      -0.00423451
C       -0.71018844      -1.23014714       0.03712106      -0.00061562      -0.00170601      -0.00402511
N        1.37770428      -2.39492003       0.07133075       0.00221188      -0.00354986      -0.00216454
C       -1.44568385      -0.00005075      -0.04425662       0.00026271       0.00073588       0.00162108
N       -1.42849845      -2.47322344       0.09991534       0.00058086      -0.00105616       0.00372392
N       -2.76027639      -0.00084381      -0.12479193       0.00765622      -0.00177251       0.00027060
N       -1.43028350       2.47438210       0.07437415      -0.00334601      -0.00000869       0.00160717
O        3.46576031      -1.06042678      -0.33090089      -0.00158554       0.00018644       0.00332200
O        3.48336993       1.05848624      -0.19024401      -0.00244885      -0.00011361       0.00587549
O       -2.61224270      -2.51935238      -0.22698079      -0.00448078      -0.00415500       0.00251377
O       -0.86087695      -3.49268979       0.48627155       0.00112276       0.00619407      -0.00058452
O       -2.61401910       2.51488460      -0.25411390      -0.00442683       0.00535257       0.00135434
O       -0.86477593       3.50033298       0.44651106       0.00184122      -0.00434076       0.00046258
H        0.83872476       3.23628437       0.21552433       0.00084540      -0.00004319       0.00307859
H        2.38314419       2.35646543       0.03509791       0.00391220      -0.00644248       0.00190817
H        0.84174156      -3.23571641       0.21377827       0.00286366       0.00200374       0.00367899
H        2.38096134      -2.36045783      -0.01910394       0.00001388       0.00540438      -0.00056268
H       -3.22234801       0.89079548      -0.20642105      -0.00443325      -0.00504812      -0.00077533
H       -3.22248839      -0.89293053      -0.19904041      -0.00206594       0.00299304      -0.00154427
24
Properties=species:S:1:pos:R:3:forces:R:3 energy=-27549.19679484663 free_energy=-27549.19679484663 stress="4.904936240529362e-06 -8.033237986917678e-08 -3.01399222626861e-08 -8.033237986917678e-08 -5.275678224977598e-07 -2.8590906670346994e-08 -3.01399222626861e-08 -2.8590906670346994e-08 -9.356746235295644e-09" pbc="F F F"
C        1.12329445       1.30353553      -0.00889100       0.50133726      -0.11182428       0.02967997
C        1.89940686      -0.03218852      -0.01955482       0.63182323      -0.15086594       0.03934669
C       -0.38895468       1.27544802       0.01318280       0.40458127      -0.05713750      -0.01689598
N        1.76399207       2.40719905      -0.06803987       0.38867486       0.00693786       0.04695497
C        1.01011433      -1.23352731      -0.04960386       0.42617849      -0.00586242       0.01460368
N        3.34452427      -0.13019220      -0.02287151       0.93312441       0.02734285       0.01751750
C       -0.42263916      -1.16304627       0.00589431       0.35196220       0.02430404      -0.02083373
N        1.62151531      -2.40216141      -0.16407918       0.25800179      -0.10720764      -0.00354238
C       -1.16627705       0.10253999      -0.01241976       0.32069054      -0.01044008      -0.01605001
N       -1.19221274      -2.40291353       0.07230975       0.28591315       0.04212537      -0.02783908
N       -2.50208843       0.09461040       0.00873678       0.30351129       0.01060900       0.01137576
N       -1.13223240       2.53617945       0.09997302       0.34941248      -0.04833170      -0.00071742
O        4.26507278      -1.03010987      -0.10416715      -3.88675452      -0.91072305      -0.07094965
O        4.11301390       1.03744156       0.10044944       0.61104796       0.47797401       0.14879696
O       -2.38763018      -2.42387205      -0.20664331       0.28005360       0.08298155      -0.01896726
O       -0.63215615      -3.43817229       0.42298654       0.21537998      -0.00104616      -0.02557735
O       -2.31529801       2.57364570      -0.29760002       0.36047768      -0.04717837      -0.05627366
O       -0.60602189       3.51478195       0.56523300       0.28646042      -0.05046282       0.07108736
H        2.76757104       2.18098327      -0.03822782      -1.08060605       0.75619317      -0.15052225
H        5.10074866       0.70145994       0.08587226      -2.86962334       0.30593151      -0.04268809
H        1.07750380      -3.24136742      -0.02691834       0.12656553      -0.03560311       0.01433765
H        2.62236627      -2.38909159      -0.21992220       0.25828149      -0.22293189       0.03889192
H       -2.97403645       0.98455335      -0.07829807       0.27828721      -0.00424300       0.00844122
H       -2.99574211      -0.77939869      -0.05973215       0.26521906       0.02945860       0.00982319
24
Properties=species:S:1:pos:R:3:forces:R:3 energy=-27550.06293506592 free_energy=-27550.06293506592 stress="2.826937531243073e-07 1.2664682904835875e-07 1.068135577562429e-08 1.2664682904835875e-07 3.7150817195779792e-09 2.7590004006358715e-10 1.068135577562429e-08 2.7590004006358715e-10 4.582145700071413e-09" pbc="F F F"
C        0.82445325       1.36531161      -0.02568875       0.08018836       0.01727389       0.02570942
C        1.51003439       0.04741447      -0.05117678       0.08737682       0.00910179       0.01970005
C       -0.63590363       1.31552907       0.02280356       0.06815943       0.02049913       0.00090976
N        1.55709599       2.38081943      -0.08416811       0.12675664      -0.01777580       0.06108679
C        0.73076132      -1.23322467      -0.07425751       0.04246704      -0.00250099      -0.00065081
N        2.78422707      -0.17431832      -0.03909305       0.05396009      -0.03256855       0.03106003
C       -0.65573189      -1.17088112       0.01914861       0.04886224       0.01167774      -0.00976116
N        1.42858568      -2.34696150      -0.20325573       0.04291962       0.00005352      -0.00105250
C       -1.37251604       0.11935163       0.00313957       0.05868302       0.02828652      -0.00427650
N       -1.39349142      -2.41826088       0.09496244       0.02880676       0.01450023      -0.01445896
N       -2.69922641       0.10450232       0.01734751       0.05746228       0.03084212      -0.00492757
N       -1.33952432       2.57397229       0.10074336       0.06493895       0.02312878       0.00459078
O        6.92345565      -0.43122618      -0.07150306       0.08671963      -0.06348638      -0.01641187
O        3.76570279       0.70072149       0.02097417       0.23186477      -0.15689228       0.00575763
O       -2.58323204      -2.46098979      -0.19803615       0.02391773       0.03193380      -0.00194893
O       -0.79704329      -3.42561149       0.45815967       0.02124691       0.00060267      -0.02968003
O       -2.53235269       2.61550563      -0.25376170       0.06251618       0.02818733       0.01351862
O       -0.76623929       3.55330164       0.51421728       0.07487697       0.02051545      -0.00241913
H        3.53633870       1.64556357       0.08611791      -1.44523789      -0.03260024      -0.15912963
H        7.07510614       0.49255056       0.14097873      -0.02359675      -0.00298551       0.00726585
H        0.96233725      -3.22560581      -0.06378326       0.01719574       0.00066213      -0.02629326
H        2.42711183      -2.27637237      -0.29664943       0.08301576       0.00861379       0.09509597
H       -3.15480275       1.00391514      -0.06638520       0.05503728       0.03081385       0.00498160
H       -3.17463713      -0.77811034      -0.05308791       0.05186240       0.03211702       0.00133386
24
Properties=species:S:1:pos:R:3:forces:R:3 energy=-27546.64899586066 free_energy=-27546.64899586066 stress="1.9206201814433995e-07 1.7854118211449263e-07 1.283300868202642e-07 1.7854118211449263e-07 1.1667751916229122e-07 7.140515334824437e-08 1.283300868202642e-07 7.140515334824437e-08 4.161657639161027e-08" pbc="F F F"
C        0.57407087       1.26465083      -0.13121058      -0.02291892      -0.01640285      -0.01790344
C        1.19912678      -0.05017844      -0.19172858      -0.05316695      -0.02064172      -0.04029209
C       -0.87525848       1.25690603       0.02180921      -0.02191860      -0.00090649      -0.00254644
N        1.23832320       2.33224772      -0.30177284       0.01081291      -0.03690679      -0.00730749
C        0.46135669      -1.25423583      -0.18226388      -0.06734507       0.00395643      -0.00293775
N        2.56488109      -0.26283371      -0.24903196      -0.03960192      -0.07027603      -0.08102062
C       -0.92821282      -1.18087369       0.04959206      -0.06202069       0.00374634       0.02361044
N        1.05678540      -2.42779655      -0.43810755      -0.10429731      -0.00417198       0.04092607
C       -1.63587386       0.07713093       0.04934145      -0.03814397       0.01096413       0.01153927
N       -1.64584741      -2.41866089       0.18295811      -0.06136895      -0.00057441       0.01035341
N       -2.96947969       0.08077307       0.12431115      -0.03867870       0.02001539       0.02263214
N       -1.53804042       2.52713181       0.10279687      -0.00328639       0.00152034       0.00763570
O        7.55642822       0.19038567       0.06362623       5.97566088       3.35385802       2.18747503
O        3.28737094       0.69468403      -0.06772176       0.00489289      -0.11872080      -0.08761955
O       -2.80396682      -2.50441829      -0.20996879      -0.05843785      -0.00956728       0.01310730
O       -1.07129675      -3.37118111       0.69410093      -0.05701456      -0.00338622       0.01595095
O       -2.71927291       2.59406063      -0.28283299      -0.00127135       0.02002019       0.00443430
O       -0.95877603       3.49024478       0.54996772       0.01202413      -0.00969046       0.01997648
H        9.42548106       1.37415004       0.80325572      -2.65857562      -1.93697823      -1.15129780
H        8.57488016       0.77368094       0.44273509      -3.26336302      -1.41223973      -1.03260518
H        0.65782526      -3.28182398      -0.11468391      -0.22432092      -0.10700127      -0.06551491
H        1.91389887      -2.44946127      -0.93007392       0.84581737       0.28524874       0.09085211
H       -3.41776009       0.97507177       0.00437649      -0.02940391       0.02301226       0.01802734
H       -3.45145166      -0.79040971       0.00864809      -0.04407349       0.02512241       0.02252474
24
Properties=species:S:1:pos:R:3:forces:R:3 energy=-27545.42431572651 free_energy=-27545.42431572651 stress="-3.831439892766248e-09 1.8200002191075494e-08 1.7163039972656667e-08 1.8200002191075494e-08 4.03509437297496e-08 2.2382038376585353e-08 1.7163039972656667e-08 2.2382038376585353e-08 2.0890862277337695e-08" pbc="F F F"
C        0.55246001       1.18558669      -0.16774808      -0.01880167      -0.10395395      -0.06163553
C        1.16477273      -0.14714306      -0.27340257      -0.08327184      -0.14753408      -0.15253631
C       -0.88881243       1.21435573       0.01124558      -0.01487620      -0.04256372      -0.01435109
N        1.20666306       2.26598669      -0.33440719      -0.00213038      -0.11254952      -0.04139726
C        0.38650424      -1.34383200      -0.31474768      -0.19360203      -0.07930816      -0.24917349
N        2.52627284      -0.31743157      -0.26517939      -0.07611287      -0.21575037      -0.13109097
C       -0.97508558      -1.20975588       0.00676418      -0.10494338      -0.02083033      -0.07985523
N        0.86731473      -2.58857392      -0.73616101      -0.49968538      -0.17527935      -0.51294078
C       -1.67126313       0.04977739       0.04059167      -0.05855640      -0.00347822      -0.00390236
N       -1.70833160      -2.43441647       0.20272381      -0.09647045      -0.02361237       0.01892874
N       -3.00280700       0.06869150       0.12336498      -0.05231153       0.00803200       0.02998175
N       -1.53539177       2.50316648       0.09149979       0.02257519      -0.02060507       0.00754646
O       -0.39157471      -3.72068714      -2.49903012       0.43767070       0.69082109       0.81215161
O        3.18167267       0.70380582      -0.02757363      -0.00312484      -0.27811954      -0.04473722
O       -2.86137548      -2.51252346      -0.21429306      -0.08104193      -0.04899236      -0.01295012
O       -1.15982263      -3.35623989       0.77142843      -0.07905452       0.03779128       0.09826768
O       -2.71154756       2.57718457      -0.29710264       0.03435601       0.00553441      -0.03361231
O       -0.94972256       3.45632051       0.54125268       0.03525501      -0.04524618       0.06404584
H       14.93075612       3.92774233       2.58806990       0.04770977       0.04790982       0.01784061
H       14.44484695       3.43979568       2.40636883      -0.04770977      -0.04790982      -0.01784061
H        0.76927823      -3.25161378       0.03612715       0.22729477      -0.06165305      -0.27305462
H        0.18883123      -3.18106899      -1.69058605       0.71605610       0.61794839       0.55181756
H       -3.45196174       0.96137489       0.00588318      -0.04885129       0.00710770       0.02296627
H       -3.48760662      -0.80243096      -0.00679795      -0.06037306       0.01224141       0.00553137
24
Properties=species:S:1:pos:R:3:forces:R:3 energy=-27543.067090353543 free_energy=-27543.067090353543 stress="1.6226717174273392e-09 7.264166219405006e-10 6.086577251660128e-10 7.264166219405006e-10 4.329711247106904e-10 2.887810956772511e-10 6.086577251660128e-10 2.887810956772511e-10 2.2461201879210105e-10" pbc="F F F"
C        0.68214599       1.24221678       0.00125793       0.00192061      -0.00124124      -0.00106571
C        1.38257579      -0.00301896       0.01520027       0.00650941       0.00053215      -0.00105715
C       -0.74162670       1.25777143      -0.00326523       0.00209674      -0.00401479       0.00136347
N        1.57052379       2.21029106      -0.01065878      -0.00230686       0.00314437      -0.00196444
C        0.74170492      -1.33509597       0.03457869       0.00722023      -0.00403361      -0.00154845
N        2.65211932       0.23239582       0.01108153       0.00490883       0.00692418       0.00137662
C       -0.72324152      -1.24369461       0.02400795       0.00059868      -0.00128511       0.00043174
N        1.54021035      -2.33498511       0.04681757       0.00407112      -0.00071986      -0.00316663
C       -1.45530444       0.00922347      -0.00358667       0.00089556      -0.00593919       0.00102220
N       -1.45484345      -2.47240674       0.04092208      -0.00283607       0.00295731      -0.00040513
N       -2.78035440       0.03107872      -0.01783095       0.00082055      -0.00080631       0.00095260
N       -1.40638975       2.51102148      -0.01111689       0.00029708      -0.00690644       0.00060261
O      -19.56693575     -12.96454932      -8.96775778       0.43923429       0.21286718       0.17055770
O        2.77557522       1.56885913      -0.00440243      -0.00071444       0.00884168       0.00065691
O       -2.68711736      -2.48087526      -0.07075650      -0.00424472       0.00857239      -0.00177558
O       -0.85002928      -3.52785293       0.16422393      -0.01040896      -0.00122788       0.00031903
O       -2.65086001       2.56332446      -0.02145462      -0.00081023      -0.00829569      -0.00016570
O       -0.73016301       3.51778390      -0.00636621      -0.00267029      -0.00520488       0.00028636
H       33.59523590      11.20744420       8.31868671       1.38887066       0.64574741       0.48676706
H       34.30275788      11.53640246       8.56665680      -1.38887066      -0.64574741      -0.48676706
H        1.03043034      -3.21007838       0.06736358      -0.01020093       0.00584016       0.00433644
H      -17.35672350     -11.89340876      -8.10951711      -0.43923429      -0.21286718      -0.17055770
H       -3.20957607       0.94739069      -0.02649098       0.00678622       0.00223723       0.00042947
H       -3.25956223      -0.85383027      -0.03821841      -0.00193251       0.00062552      -0.00062866
24
Properties=species:S:1:pos:R:3:forces:R:3 energy=-27542.4680795962 free_energy=-27542.4680795962 stress="1.0513058288801424e-11 -2.4868810249018945e-12 1.0327240835796985e-13 -2.4868810249018945e-12 -9.328227644593169e-12 4.823602214485567e-14 1.0327240835796985e-13 4.823602214485567e-14 2.956495668201707e-14" pbc="F F F"
C        0.67615570       1.25326974      -0.00535640       0.00115165       0.00247321       0.00020134
C        1.34124408      -0.00159855       0.00513056       0.00149948       0.00199221       0.00086434
C       -0.75336887       1.27564318      -0.01032558       0.00081968       0.00090820      -0.00031647
N        1.59733993       2.18648901      -0.00731051       0.00038352       0.00338866      -0.00004697
C        0.67968983      -1.28367842       0.01070346      -0.00247980       0.00204842       0.00138993
N        2.62695787       0.18048098       0.00896831       0.00162538       0.00357006       0.00092509
C       -0.71532844      -1.23502891      -0.00049372      -0.00072814       0.00223880      -0.00063409
N        1.48459863      -2.33599234       0.02250340      -0.00924112      -0.00283762       0.00421012
C       -1.45521985       0.05124683      -0.00935225       0.00029048       0.00106655      -0.00071482
N       -1.42800118      -2.49324864      -0.00153278       0.00390515      -0.00030006      -0.00021092
N       -2.77649352       0.03249817      -0.01204186       0.00071121      -0.00058938      -0.00084914
N       -1.41747378       2.53822180      -0.01662326       0.00010208      -0.00003239      -0.00000327
O      -57.92657944     -31.49997003     -23.53506613       0.00000000       0.00000000       0.00000000
O        2.79337462       1.50094942       0.00156872       0.00076053       0.00399934       0.00017994
O       -2.65105713      -2.52449237      -0.05248893       0.00411669      -0.00223524       0.00176132
O       -0.77162876      -3.52852346       0.04757792       0.00502787       0.00049167      -0.00168449
O       -2.65481531       2.59106371      -0.01330254       0.00000643      -0.00112045      -0.00053148
O       -0.72655942       3.53689608      -0.02464785      -0.00047337       0.00032332       0.00080602
H       28.39502526       8.04100866       6.08753015       0.00000000       0.00000000       0.00000000
H       60.89295094      23.11320921      17.47566108       0.00000000       0.00000000       0.00000000
H        1.09016453      -3.26017237       0.03422003      -0.00065941      -0.00657552       0.00281681
H        2.47685654      -2.17377135       0.03322101      -0.01056088      -0.00691121      -0.00758779
H       -3.23387558       0.93459919      -0.01426068       0.00157230      -0.00042680      -0.00049270
H       -3.24801009      -0.85491355      -0.02438266       0.00217029      -0.00147177      -0.00008279
24
Properties=species:S:1:pos:R:3:forces:R:3 energy=-27542.46805181966 free_energy=-27542.46805181966 stress="6.067813838181551e-15 -5.790555341917037e-15 1.7471864720497475e-15 -5.790555341917037e-15 -2.3975271285614328e-14 -5.214984035131494e-17 1.7471864720497475e-15 -5.214984035131494e-17 5.9379042048453664e-15" pbc="F F F"
C        0.66682031       1.26499957      -0.00160268       0.00001512       0.00003915       0.00017824
C        1.33647091       0.01241958       0.01246816       0.00001828       0.00002512      -0.00041913
C       -0.76276251       1.28229195      -0.01146755       0.00000713       0.00002415       0.00023592
N        1.58442531       2.20170717       0.00246270       0.00001607       0.00004274       0.00007440
C        0.67892769      -1.27204364       0.01101438      -0.00003600       0.00002511      -0.00022360
N        2.62151154       0.19951397       0.02393713       0.00002451       0.00003152      -0.00080909
C       -0.71621903      -1.22820752      -0.00091159      -0.00001848       0.00001357       0.00020632
N        1.48565310      -2.32288982       0.02065545      -0.00011522      -0.00003140      -0.00041809
C       -1.46042305       0.05551885      -0.00510765      -0.00000084       0.00001110      -0.00034728
N       -1.42412499      -2.48909206      -0.00874023       0.00003240      -0.00003671       0.00116259
N       -2.78154364       0.03195185      -0.00332090       0.00000627      -0.00001217      -0.00132659
N       -1.43145748       2.54237596      -0.02696683       0.00000169       0.00002285       0.00080732
O      -93.56675135     -48.40741639     -36.31274602       0.00000000       0.00000000       0.00000000
O        2.78294686       1.52065046       0.01812881       0.00002277       0.00003550      -0.00052785
O       -2.64804261      -2.52440755      -0.02252490       0.00003230      -0.00003926       0.00165896
O       -0.76337808      -3.52281559      -0.00266760       0.00004928      -0.00001494       0.00162525
O       -2.66887300       2.59082270      -0.01076427      -0.00003626      -0.00004241      -0.00168875
O       -0.74437726       3.54329733      -0.05596060       0.00002684       0.00008923       0.00376002
H        8.09874628      -2.76112071      -1.72419940       0.00004558      -0.00000492      -0.00001423
H      121.64819491      49.89142301      38.06130570       0.00000000       0.00000000       0.00000000
H        1.09273533      -3.24797130       0.01875349       0.00000465      -0.00007895      -0.00004493
H        2.47752458      -2.15958458       0.02832922      -0.00015322      -0.00006259      -0.00087189
H       -3.24218529       0.93235967      -0.00366718       0.00002131      -0.00000539      -0.00196058
H       -3.24942935      -0.85751665      -0.00565255       0.00003581      -0.00003130      -0.00105701
24
Properties=species:S:1:pos:R:3:forces:R:3 energy=-27542.46805181896 free_energy=-27542.46805181896 stress="2.0221847615593264e-10 9.069343635224286e-11 6.882728642326091e-11 9.069343635224286e-11 4.06697927248316e-11 3.086873178070705e-11 6.882728642326091e-11 3.086873178070705e-11 2.3432403028480017e-11" pbc="F F F"
C        0.67025929       1.26026023      -0.00210900      -0.00000144       0.00000586       0.00014016
C        1.33803978       0.00666806       0.01134227      -0.00000514      -0.00000007      -0.00025881
C       -0.75931626       1.27971974      -0.01072227      -0.00000257       0.00000550       0.00014631
N        1.58929689       2.19557202      -0.00038993       0.00000662      -0.00000074       0.00010640
C        0.67852729      -1.27678805       0.01294442      -0.00000515      -0.00000003      -0.00016281
N        2.62338097       0.19181508       0.02036120      -0.00000315      -0.00001198      -0.00048362
C       -0.71652724      -1.23083106       0.00044532      -0.00000600      -0.00000440       0.00014855
N        1.48360087      -2.32888922       0.02423707       0.00000514       0.00000596      -0.00031033
C       -1.45880308       0.05397294      -0.00668576      -0.00000131      -0.00000177      -0.00023448
N       -1.42634659      -2.49066109      -0.00490563      -0.00000815      -0.00000703       0.00080938
N       -2.77996334       0.03232549      -0.00761313       0.00000100      -0.00000242      -0.00094372
N       -1.42613540       2.54082831      -0.02304265       0.00000132       0.00000885       0.00048550
O      -31.85427039     -20.04804168     -14.99682692       3.35204275       1.50337408       1.14087826
O        2.78681066       1.51270342       0.01341255       0.00000569      -0.00001287      -0.00027358
O       -2.64996722      -2.52421423      -0.03696168      -0.00002623      -0.00002140       0.00162186
O       -0.76749652      -3.52526781       0.02157980      -0.00000085      -0.00000417       0.00066589
O       -2.66355094       2.59098210      -0.01280645      -0.00001363      -0.00000685      -0.00124083
O       -0.73750871       3.54090227      -0.04320175       0.00001811       0.00003764       0.00247862
H      -30.35200135     -19.37428168     -14.48552494      -3.35204275      -1.50337408      -1.14087826
H       96.33912861      38.54186123      29.49126577       0.00000000       0.00000000       0.00000000
H        1.08920664      -3.25333426       0.02866452       0.00002065       0.00000148      -0.00017026
H        2.47573263      -2.16714655       0.03087063       0.00000408       0.00001609      -0.00050398
H       -3.23928315       0.93340787      -0.00921891       0.00000616      -0.00000027      -0.00140157
H       -3.24915055      -0.85642660      -0.01472584       0.00000486      -0.00000736      -0.00061864
24
Properties=species:S:1:pos:R:3:forces:R:3 energy=-27552.510696198155 free_energy=-27552.510696198155 stress="-6.614656447809038e-11 4.1597312936274233e-10 -1.2553826988978866e-11 4.1597312936274233e-10 3.5478646863584337e-10 -4.422337221369081e-12 -1.2553826988978866e-11 -4.422337221369081e-12 1.2655958640539109e-11" pbc="F F F"
C        0.68095711       1.24859845      -0.00852115       0.00014783      -0.00320374       0.00332230
C        1.34378211      -0.00762971       0.00542499       0.00156250      -0.00439664       0.00225108
C       -0.74873686       1.27335515      -0.01067377       0.00285852       0.00023461      -0.00062376
N        1.60394720       2.18004197      -0.01691305      -0.00263883      -0.00040478      -0.00074471
C        0.67936467      -1.28846022       0.01740935      -0.00030110      -0.00278109      -0.00149815
N        2.62986118       0.17209686       0.00556208       0.00173446       0.00172130       0.00002009
C       -0.71515072      -1.23720696      -0.00009577      -0.00197355      -0.00009682       0.00131747
N        1.47999150      -2.34388040       0.03738389       0.00151927      -0.00171296      -0.00335193
C       -1.45264896       0.05009982      -0.01110097      -0.00005900       0.00157832       0.00017670
N       -1.42990393      -2.49442009      -0.00443653      -0.00089857       0.00049691       0.00170382
N       -2.77395519       0.03246820      -0.01204585      -0.00033044       0.00276997      -0.00008062
N       -1.41088304       2.53704529      -0.01056435      -0.00062875      -0.00062018       0.00019556
O        9.50218103       0.00000000       0.00000000       0.00033849       0.00000000       0.00000000
O        2.79874822       1.49223481      -0.00821661      -0.00261102       0.00301983       0.00109374
O       -2.65099001      -2.52390459      -0.09052040      -0.00073200      -0.00147469       0.00257235
O       -0.77780018      -3.53042857       0.07592787       0.00461741       0.00344139      -0.00064314
O       -2.64806301       2.59161775      -0.01779036      -0.00149952      -0.00382241       0.00217976
O       -0.71851444       3.53471854      -0.00257597       0.00089701      -0.00114055      -0.00253637
H       10.08598909       0.76044930       0.00000000      -0.00016925       0.00042661       0.00000000
H       10.08598909      -0.76044930       0.00000000      -0.00016925      -0.00042661       0.00000000
H        1.08207713      -3.26653376       0.05734590      -0.00273707      -0.00139649      -0.00085939
H        2.47280185      -2.18654885       0.04217363       0.00134555       0.00163552      -0.00015363
H       -3.23078659       0.93464012      -0.01445361      -0.00040666       0.00425390      -0.00386219
H       -3.24589063      -0.85460004      -0.03371964       0.00013396       0.00189859      -0.00047897
