1296
Lattice="20.912666507853977 -38.82558921179652 -27.21789750806481 0.0 28.92013338634386 16.454214670804845 0.0 0.0 39.24607802375573" Properties=species:S:1:pos:R:3:momenta:R:3:forces:R:3 energy=-1487762.827855606 free_energy=-1487762.827855606 stress="0.005768851985109305 -0.0020721044682575113 0.0010199337311563822 -0.0020721044682575113 0.00410775820229564 -0.000483322933740396 0.0010199337311563822 -0.000483322933740396 0.0020204426615014117" pbc="T T T"
C        2.03907781       0.53805913       0.74434090      -0.12742237      -0.63709606      -0.13612134      -0.52960515      -2.19379830       1.04795698
C        2.45455390       0.56520729      -0.55344568       0.06132340      -0.07803417      -0.56164106       0.24993267       1.19177733      -0.83086291
C        1.86384021      -0.80175907       1.26005007       0.79171992       1.66912797       0.06340061      -1.67432904      -0.91216669      -0.24188258
N        1.84457955       1.66965109       1.42394897       0.19679421      -0.17932278      -0.95708411       1.17865265       0.51173160      -1.95098256
C        2.85185793      -0.52254020      -1.29411197       0.20906675       0.54980583       1.01718505       0.94354943      -1.62364162      -1.92772908
N        2.89916536       1.87058339      -1.04908105      -0.72260428      -0.35552940       1.89917688      -1.77184670       0.75212582      -2.89621326
C        2.46266958      -1.81837218      -0.85866266      -0.32140423      -0.34415255       0.37640038       0.60639257       0.76621934       0.06747646
N        3.53032541      -0.42004745      -2.46353417      -0.06303208       0.77192408       2.29859880       1.35817837      -1.63454700      -0.74205277
C        1.86059003      -1.95498171       0.38259800      -0.24247094      -0.76561254       1.11979592      -0.54259858       0.55639219       1.65816069
N        2.85016715      -2.99398308      -1.59159521       0.33518231      -0.84608496      -0.61001354       1.06210392       0.38207330      -0.35789440
N        1.30907641      -3.10373124       0.77971676      -2.71083770      -1.04169763      -1.12783546       1.37783722       1.17520044      -1.84574637
N        1.12884772      -0.98281283       2.49287333       1.44991217       0.57114555       1.27852649       0.94222310       1.30129044       1.24251307
O        4.03799859       2.11553344      -0.86556807      -0.04978462      -1.14309383      -0.90507303       2.41559945       0.69119353       0.95135816
O        2.16405459       2.61041395      -1.75839796       0.61102954       0.15319843      -0.45939030       0.28801053      -1.49044482       1.41160845
O        3.99570735      -3.03938312      -2.01400419       0.75341010       1.65997495       0.32567244       0.38822251       0.25027177      -0.18093503
O        2.08865928      -3.91440126      -1.74360574      -1.28353118       1.61913406       0.47124340      -1.24973104      -0.67423316       0.24824291
O        0.85768464      -2.06585463       3.02907648       0.64901639       0.03785336      -0.48283192       0.02682845       0.29072889      -0.87869217
O        0.91033052       0.06125054       3.09941040       0.97851614       0.12067230      -0.82391409      -0.72750678      -0.16481669       0.15653694
H        1.09664723       1.63473887       2.03772863       0.07393942       0.08601140      -0.15808085      -1.12560029       0.35088284       1.65508536
H        1.95618527       2.45909449       0.80551272       0.10285664       0.11706356       0.18932087      -0.46279481       0.39085022       0.72882541
H        4.20239706      -1.10293188      -2.85890210       0.07931864       0.11925897       0.31665119      -1.37720238      -0.43250581       1.52058393
H        3.67404534       0.30245516      -3.11222220      -0.04551153      -0.05726987       0.71785351      -0.76595989       2.43639879       0.33962600
H        0.88445290      -3.17952771       1.64430959       0.19989762       0.22907395       0.05565688      -0.71968248      -0.30419415       1.83915452
H        1.36378741      -3.79190983       0.09550148      -0.08361525      -0.37900680       0.68021174      -0.36649383      -1.64260091      -0.82472556
C       -5.94943699     -12.41277773      -2.95617582       1.03518271      -1.17524809      -1.67850381       0.63750924      -1.41869013      -1.62034796
C       -6.25212167     -13.61034256      -2.24688975       0.18207915      -2.15804745       0.44936581       0.04524379      -1.90937770       0.50385660
C       -4.87870651     -12.53326667      -4.03176034      -1.68264089       0.16833852      -1.02077779      -3.32589498       1.04399604       2.97322893
N       -6.71034272     -11.35540458      -2.75563921       0.17757200      -0.37335202      -0.01222221       1.59839505       1.13322262      -1.95148944
C       -5.47641360     -14.86759293      -2.45785985      -0.40167560       0.79112578      -1.27138897      -1.87613886       2.28402593       1.48632177
N       -7.31153152     -13.62791475      -1.21605413       0.03899322      -1.11693308       0.98891896       0.26519640       1.79799142      -0.15445747
C       -4.53365991     -14.85576475      -3.45631420      -0.89372751       0.28528260      -1.05667785       2.30613233      -1.72633610      -1.71260604
N       -5.70586803     -15.86268086      -1.63842058       0.67078411      -1.76243495      -0.33230748      -1.50081169      -0.00758659       1.26868875
C       -4.28744748     -13.77122931      -4.31217084      -1.11830560       0.42736976       1.07053894       0.80981701       0.31386672      -1.20173004
N       -3.71699958     -16.09241293      -3.70435400      -0.55735425      -1.06320362      -0.20552427      -1.97123227       1.42414291      -0.81668539
N       -3.55837259     -13.86848449      -5.44791440       0.61315686       0.01095873      -0.01889997       0.70893086      -1.97479897      -0.22503672
N       -4.24979359     -11.32568354      -4.37662231      -0.93185651      -0.15820252      -1.19539623       2.92638479      -0.19679616       0.40098662
O       -7.65044924     -12.49516209      -0.78681582      -0.72397856       2.24750556       1.03570711      -0.21603103      -1.82489872       0.02454687
O       -7.85617656     -14.64692734      -0.78405333      -0.50284201      -1.10569047      -0.41153847       0.80206540       0.59334913      -0.57289916
O       -3.89686750     -16.98745841      -2.89411808       0.26003241       0.69024840       1.71960815       1.54016290      -0.61874500      -0.56827983
O       -3.04821915     -16.17973862      -4.73520299       1.24393092      -0.04791302       0.98672738      -0.12530146      -0.94131711       1.66541639
O       -3.00608653     -11.45639065      -4.48369052       0.64241882       0.00890010       1.78389222      -0.23058104       0.54898794      -0.71518066
O       -4.73264475     -10.21411998      -4.39046891       0.93604545       0.06474855      -1.43503755      -1.50173622      -0.03473540      -0.07844668
H       -6.54143785     -10.46206289      -3.19881574      -0.02020535      -0.02933454       0.07280763       0.27122485      -0.46563150      -0.10943454
H       -7.40775615     -11.47468994      -2.08092281      -0.11123561       0.02279733       0.22226135      -0.99737208       0.30527645       1.23708948
H       -5.13075178     -16.66907467      -1.69554820      -0.32484729       0.11813949       0.44204124       0.18433084      -0.66881259      -0.17475982
H       -6.53833479     -15.81599801      -1.01943465      -0.09211806      -0.30257868       0.06678082       1.00918949      -0.04773633      -0.77555797
H       -3.13458132     -13.08734622      -5.84300593       0.17068124      -0.02424050      -0.46877370       0.15180698       1.88296334      -0.15617619
H       -2.99206775     -14.70681277      -5.69862532      -0.09264034      -0.18674348       0.09556050      -1.27637326       0.68702161       1.10421115
C      -11.70859018      32.24439720      -3.57206491       0.69915732       0.26986120      -0.72748067      -1.58106529      -0.00219906      -3.71558802
C      -11.33862857      32.85843047      -4.87351923      -1.68194915      -0.15277259       0.59746213      -1.76414762      -0.14934549       1.04382628
C      -10.89014516      32.60038222      -2.53815949       0.17094778      -0.02975443      -1.06877435       0.43569198      -0.98349796       2.71735412
N      -12.79818538      31.44854497      -3.45240105       0.52333794       1.16453229       1.55614320       0.54013787      -0.04598690       1.04273860
C      -10.11426557      33.57903060      -5.00611908      -0.35402752      -0.41021103      -0.26144962       0.78649069      -1.00867266      -1.11846299
N      -12.30138415      32.82644294      -5.97684635      -0.68770309       0.29598093       1.49764734       0.00353152      -1.83511542      -0.91576204
C       -9.27002210      33.76679921      -3.90951112       0.65285113       0.58002917      -0.50584068       0.02639226      -0.70282962      -0.40129061
N       -9.65177066      33.81387102      -6.25296580       0.11771095      -0.45734955      -0.16789010      -0.54556861       0.26522243      -1.64880101
C       -9.69150550      33.27320523      -2.63515928      -0.88634678      -0.10606340       1.09771257       1.99774739       1.67231207      -0.54481764
N       -7.89019025      34.36058087      -4.15007866       2.45023731       0.43491769      -0.48584825      -0.89187814       0.53934514       3.10163165
N       -8.91923116      33.51841747      -1.57695130       0.80043398       0.68760962      -0.14888389       1.65375197       0.47479987       0.64196721
N      -10.96813918      31.86549295      -1.23441106       0.34477475      -0.32973848      -0.84793689      -0.99544415      -0.46558681      -0.80849672
O      -12.26345290      33.61036021      -6.93596527      -1.38721458      -1.52764690      -1.73046004       0.39248517      -0.58175530       1.34632721
O      -13.11685821      31.84462791      -6.03626161       0.30083023      -2.18825251      -0.84877080       1.11250200       1.69971227       0.65394496
O       -6.88424156      33.88843058      -3.67746035       2.63261001       0.64461758      -0.07334416       0.28519745      -2.67480849       0.76665357
O       -7.83570041      35.49783441      -4.52096913      -0.17271430      -1.64678739       0.61917624      -1.39929981       2.24604782      -2.35212287
O      -11.20041920      30.65897415      -1.33244591       0.70645736      -0.35959152      -0.11637483       0.16971607       0.35650099       0.48032102
O      -10.80271368      32.44387826      -0.18159036      -0.63794978       0.66757563       0.38603035      -0.28629689      -0.15070491      -0.22348148
H      -12.95282274      31.09868986      -2.48911578       0.40524193       0.03790716      -0.23099057      -0.23402838       0.00831529      -1.51186753
H      -13.30740956      31.06886444      -4.27664762       0.11865739      -0.09462254      -0.56444294       0.75581086       0.78224307       1.09635987
H       -8.66084396      33.84317917      -6.48010923       0.19349874       0.22032262      -0.15440882      -0.57789233       0.15982653       0.32030952
H      -10.30795568      33.63718848      -7.04352393      -0.11745347       0.17955170       0.62974625       1.12116578       0.35298115       1.13892476
H       -9.16808277      33.36954941      -0.60590244       0.00119531      -0.66330069       0.22315195      -0.25501401      -0.24929579      -0.71794178
H       -7.91714021      33.63508613      -1.72022573      -0.12240846      -0.18014868       0.45881375      -0.58044704       0.11409177      -0.19245395
C       -5.80447488      -9.17726701      -0.32939309      -0.01656793       0.91225537       0.71433182      -0.95521514      -0.88672036       2.00679448
C       -4.59859031      -9.49460777      -0.97335336      -1.38466041       0.84527757       0.83434906       1.50477921       2.10331645      -1.15998361
C       -6.14389509      -9.87030387       0.90575995      -1.28403266       0.90136235       1.54940146       1.56043741      -0.49642152       0.26983549
N       -6.70674368      -8.31025536      -0.74255835       0.43204748      -1.14578477       0.03798694       0.48115831       0.31194950      -0.87942593
C       -3.63640131     -10.47555847      -0.51695529       0.36200278      -1.43872919      -1.25085918      -4.60821503       1.27018291       1.41896696
N       -4.04224702      -8.42345861      -1.89957303      -1.66600070      -0.93168619      -0.84135967       0.38639656       0.21598771       0.08974559
C       -4.01292786     -11.16951170       0.66105391      -0.63070619      -0.47086732      -0.89040838      -2.36599362      -0.47115888       3.49079464
N       -2.63493893     -10.74547988      -1.25497382       0.89775329      -1.66751611      -0.57362787       4.31562588      -2.86156205       0.41757471
C       -5.29388972     -10.88472971       1.45714318       0.63144047       0.17991802      -0.14499499       0.45873955      -0.40255232      -2.23061548
N       -3.14914883     -12.14455780       1.30363115      -0.87543244       0.49765084      -1.12693123       2.64209851       0.23200829      -0.45380406
N       -5.72775921     -11.71314455       2.43226272       0.20572395      -0.54395735      -0.00737100       3.31099088      -2.84690003       0.43480678
N       -7.26731533      -9.45727933       1.71100829       0.19067255      -0.79038430      -0.54783766      -0.04176983      -0.66974522      -0.82710281
O       -4.77578365      -7.48146831      -2.25266814      -0.18223987       0.92962291       0.18522465       1.20328702      -1.64689743       0.31192515
O       -2.82400699      -8.46134359      -2.22295181      -1.88187627       0.38983840       0.13979077      -2.48270157       0.35666193       0.37625651
O       -2.98573100     -12.22609399       2.56921059       0.75624305       0.14047503       0.20287245      -1.06536572      -0.11206363      -3.37274537
O       -2.39530969     -12.75287738       0.47822628      -0.23379282       1.96430479      -0.03572146      -1.36217128       0.53384242       2.29824912
O       -8.24525052      -8.95197215       1.12952314      -0.44736559      -0.88372791       0.46136529       0.29476588      -0.18650028       1.34665400
O       -7.19722430      -9.70398213       2.89985179      -0.20088307       0.07143226       0.59739925      -1.03388998       0.70200290      -0.35127809
H       -7.48147336      -8.04837770      -0.20539253      -0.21536361      -0.27976054       0.36835364      -1.10358570      -0.45962844       1.18720724
H       -6.50002921      -7.65787173      -1.42996509      -0.11397596      -0.02283000       0.21699350       0.99376250       0.84944501      -1.59605088
H       -2.03742892     -11.42912636      -0.75408649       0.02045965      -0.14734926       0.40484871      -0.17651827       0.30555355      -1.10378695
H       -2.18913098     -10.07809677      -1.84923926       0.13883663      -0.26125489      -0.08036017      -0.30893228       0.48795833      -0.40209663
H       -6.65145385     -11.75632790       2.80709880       0.29478340       0.38327288      -0.05030342      -0.20039913       0.77635222      -0.26942609
H       -5.12225852     -12.58001138       2.73744650      -0.34926113       0.20787833       0.12594302      -1.59631351       2.88579287      -1.12985127
C       19.98836999     -13.83843571      10.24853147       0.45158594      -1.02944967       0.49626711       2.22492448       2.27349667      -1.56473991
C       21.12009180     -13.25286437       9.42472969      -0.34453182      -0.45103333      -0.55956866      -1.85019455      -0.89609873       2.28669299
C       20.32634294     -14.96111688      10.99489999       1.71850532       0.44065078      -0.66295513      -0.38213987      -1.06726378       0.76368928
N       18.81157735     -13.21646284      10.32998950       1.13291614      -0.31928412       0.56627580      -0.82267842      -0.54982831       1.76703631
C       22.52634520     -13.66193905       9.70829602       0.08660166       0.32918414       0.53910755      -5.31908197       2.00446912      -1.28102574
N       20.73759523     -12.10673468       8.65552388       0.12746435      -0.95959090       0.81866187      -1.66287760       3.07478219      -4.84359915
C       22.72562557     -14.82764850      10.38599630      -0.10043903      -0.34704482       1.01150575       0.37367127      -5.41566159       0.86478417
N       23.39731811     -12.90963460       9.17855546      -1.30093741       0.86470104       0.77666162       2.89176774       2.16947248      -1.13027218
C       21.60244477     -15.66833110      10.88005576      -0.74039928      -0.22026774      -0.97282571       0.17030439       2.28992725      -0.51615150
N       23.97000228     -15.54024499      10.00174019      -0.70874093       0.22710534       0.36112397       1.22346595      -1.05349218      -2.18618778
N       21.70572587     -16.93088364      11.26845775       0.39385849       2.05863758       0.20625803       2.06543672       2.63085140      -2.38695807
N       19.30805526     -15.45203590      11.87953856      -0.97512461      -1.19229579       1.31666872      -0.32317345       0.82452040       0.91237316
O       19.67868788     -12.15202699       7.86993842       0.65984785       1.61317880      -1.67633648       2.49827341      -1.36601870       3.54012160
O       21.38835905     -11.02083376       8.50870216      -1.08983652       0.37502820      -2.03273331       0.46635570      -3.08998219       1.69497014
O       24.13112504     -16.78566375      10.09061281      -0.99794636       0.72845073       0.07819879      -1.22447423       2.06518688       0.97889999
O       24.84567689     -14.90864609       9.34473534      -0.17172604      -0.25250373      -1.24145503      -1.06714007      -0.55059147       1.70185735
O       18.21200861     -14.85435094      12.07010686      -0.26204245       0.75962153      -0.31873746       1.66190756      -1.43538428      -0.50007489
O       19.62522310     -16.41663553      12.56330710       0.01190126       1.42025964      -0.91890700      -0.71062046      -0.41802877       0.34844716
H       18.15190332     -13.37801507      11.18568982      -0.16092327      -0.28027061      -0.41376879       1.87209464      -0.10089520      -2.36118843
H       18.76624742     -12.37240166       9.81882498       0.21004540      -0.12801231       0.16109980      -0.41226150       0.63509656      -0.44185766
H       24.38067302     -13.19227796       9.19321862      -0.43825580      -0.15334817      -0.03177027      -0.65148121       0.30437878      -0.14040545
H       23.04188487     -12.05741142       8.75275904      -0.07131734       0.01334958      -0.18819247       0.47660915       0.09835884       0.00518578
H       21.05912968     -17.07890816      11.96348038      -0.10650919      -0.04655636       0.04510671      -1.68004220      -1.88267524       1.72648273
H       22.55402432     -17.35665741      10.94861831      -0.19567801       0.23832612       0.06343545       0.33360806      -0.77908817       0.66010055
C       14.80336131     -38.36733722       0.77636278       0.31009509       0.85472921      -0.73283225       0.94124764       1.46514915      -0.50581900
C       15.21341571     -36.94443974       0.92598422       1.11879355      -0.38526658       0.06542946      -1.42737038      -1.22737164       0.99605186
C       14.51607437     -38.67245693      -0.59631646       0.30978918      -0.80743647      -0.38309406      -1.38334262      -0.15499384       1.42389505
N       14.76099461     -39.24959768       1.80981462       0.00478108      -0.80324763      -0.85268319      -0.90384326      -0.90139739      -1.82746578
C       14.75354096     -35.95017070       0.03202281       0.82200609       1.68191048      -0.42054707       0.40845565       1.65126151       0.86043435
N       15.55549849     -36.56720110       2.28625383       1.59407579      -0.42407179      -0.18792167       0.12838051      -0.60723535       1.63362094
C       14.11135974     -36.33106204      -1.17284860      -0.47095382       0.17400542      -0.32030462       0.35528281       0.37221773      -0.77546045
N       14.93401495     -34.62472113       0.41138204       0.29864865       1.11958289      -1.50839373      -0.23137978      -3.24739059       1.98346948
C       14.01379492     -37.67202371      -1.56539633      -0.43064622      -1.48577593      -1.75105694       1.85608111      -2.04439614       1.74526500
N       13.85525814     -35.33480010      -2.17989358      -0.18520816      -1.42569637      -0.26165950      -0.91401144      -1.52251900       0.18099193
N       13.64845755     -38.07693990      -2.75964083      -0.12463185       0.86004797      -0.80675474       0.26882392      -1.15501870       0.60381122
N       14.08578498     -40.10773600      -0.79660731      -0.30703868       0.58535735      -0.28135978      -0.09868900       4.61833385       0.30192633
O       16.12993098     -37.40517082       2.97492426      -0.52536458       0.84285997      -0.05214024       0.06023970       0.26681105      -0.76247509
O       15.21365109     -35.49259223       2.82379321       0.22430096      -0.17524737      -1.88023522       0.15840618      -0.24688098      -0.99383835
O       13.22233564     -35.62635571      -3.20739449       0.26779636      -1.84682017       1.09886118       0.59304746       0.70724311       0.94904136
O       14.25720212     -34.22101345      -1.94126728      -2.22364351      -0.82852998      -2.01150376       0.38076393       1.30931566      -0.62231981
O       13.34528569     -40.56120998       0.01893367      -0.25366166      -0.93202926       2.49371370      -0.96712823      -1.77146221       1.30494706
O       14.36145523     -40.57283271      -1.84539096       0.17192398       1.18542395      -0.92828128       0.86676127      -2.18941505      -2.66632116
H       14.28098717     -40.14640363       1.66491028       0.16126873      -0.19240039       0.15521811       0.44892590       0.95757612      -0.23755761
H       15.30074812     -39.24394092       2.63807988      -0.08140879      -0.21493299       0.10148967       0.30826398       1.11856826       0.26805099
H       15.09116249     -33.92288985      -0.22605752      -0.10596778      -0.05086704       0.10187176      -0.13904480       1.27826073      -1.45589328
H       15.14092786     -34.53662868       1.41827366      -0.38005886       0.22874828       0.31368616      -0.07383310       0.31956094      -1.04131701
H       13.75493137     -39.03037635      -3.01641095      -0.16729656      -0.23194412       0.26933324      -0.09122874      -0.50158394      -0.00040871
H       13.28171808     -37.45596440      -3.41160064      -0.10243167      -0.60375075      -0.06323638      -0.62814422       1.20539160      -1.08888112
C       -6.96151893      39.57196407      40.46652741      -0.83392837       0.94224060       0.63062870      -0.94002435       1.44444748       0.36682878
C       -7.41505083      38.27486945      40.92024051       0.44158662       0.04690259       0.18119794       0.70769893       0.50981410      -1.23241576
C       -5.99509908      39.70428509      39.45291557       0.22745269       1.06752978       0.18729277       1.72719993      -3.85679808      -1.27708415
N       -7.50421064      40.73839195      40.93243069      -0.04784197      -0.76248179      -0.96832129      -0.58410750      -1.06903782       1.74989525
C       -6.82300803      37.09064761      40.48130401       1.15111810      -0.52586879      -1.28066638       1.67819885       3.70957542      -3.56554865
N       -8.29934926      38.19047982      42.01693444       0.61178594      -1.02795577       0.80508543      -1.23582852       3.43460401       4.08516103
C       -5.98832101      37.24054891      39.27654681      -0.32633583       0.00745568      -0.71064674       0.08296115      -1.60061101       1.57619374
N       -6.97727241      35.93683916      40.97629155       0.95720364       0.27412446      -1.25169252      -0.58758052      -1.81317521       1.61705301
C       -5.31696713      38.42971794      38.93005674      -1.68974519       0.06878800       0.82946417      -2.58996961       2.40199715       0.92786088
N       -5.52218232      36.00608301      38.72886777      -0.03790677      -1.19743706      -0.31182263       0.29440660      -1.41415023      -0.41124293
N       -4.25563115      38.54105900      38.17301917       0.34771663       0.28940416       0.13108276       0.44049375      -0.79239735       0.07921628
N       -5.46785414      40.91455939      38.94318260      -1.16556284      -0.49615031       1.48783549       0.34898906       2.36609134       1.22312725
O       -7.75363549      37.87989995      43.14926767       1.32762676       0.65170025      -1.36382355      -2.04832106      -0.13905003      -3.14439149
O       -9.43588870      38.78240003      41.94322562      -0.87572434      -0.06483334      -0.77392943       3.21869036      -2.38481365       0.18138598
O       -5.89222653      34.85232046      38.99863169      -0.81717132      -0.48940358       0.00679242      -1.12992437       0.62523280       1.11681141
O       -4.69189050      36.08214080      37.86339935       0.37836265      -0.89975347      -0.86075783       1.89569586       1.06103076      -2.02954235
O       -5.09134784      41.08277125      37.79774267      -0.09538479      -0.56741786       0.07626813      -0.07218097      -1.26492179      -0.57181558
O       -5.32816522      41.87882648      39.72746552      -1.57261289      -1.88212544      -1.07647257      -0.68629894      -0.56959827       0.40333431
H       -6.95598364      41.57626850      40.89724167       0.26606752       0.06293036      -0.16098213       0.32241255      -0.10872583      -0.55822101
H       -8.07694424      40.75192150      41.79250673       0.25728319       0.11857734       0.47182723       0.32574388      -0.56702760      -1.16719669
H       -6.58651055      35.08359847      40.65679732       0.22674208       0.01651516      -0.63287179       0.52957986      -0.38930427      -0.99287122
H       -7.75033754      35.79056896      41.53042040       0.03799390       0.02116683      -0.14060589      -1.72816603      -0.27614641       1.85945534
H       -3.82139693      39.39649041      38.01035098      -0.26319203      -0.13195710      -0.51176145       0.25066221       1.50577723      -0.36061134
H       -3.71667334      37.75528226      37.89737658       0.00605479       0.04469507       0.18990300      -0.18071959      -0.83417474      -0.17526585
C       12.18442936       9.62722411     -15.08456128      -0.60417143      -1.05015873      -0.59334836      -2.04542453      -1.60166907      -1.05089298
C       12.05804000       8.29390199     -14.47102338      -0.04635209       0.61321117      -0.73084501       1.35769119       1.54747120      -0.24603641
C       13.36312545       9.89089845     -15.80948691       0.23700003       0.07723207      -0.40090260      -0.94368137      -2.73798323       2.05483640
N       11.07622360      10.40467411     -15.23989207      -1.27840220       0.17989204       0.02740686       1.15445880       1.30701541      -1.45040011
C       13.17956626       7.43967978     -14.28785600       1.55862482       0.24695249      -0.96564938       1.08556774       1.75388656      -0.68103245
N       10.93855322       7.97642686     -13.73450035      -0.45340184       0.62178453       1.11894236      -2.52962262       2.99375244       0.89521837
C       14.37895848       7.82755101     -14.93366148       1.40326789      -0.86848916       1.04203858       0.61520730       1.68246152      -1.30897194
N       13.21080135       6.39519570     -13.48542117       0.17080480      -1.46440878      -1.52370872       1.76216791      -0.53582802      -0.50378331
C       14.45771592       9.02300686     -15.80857701       0.49019348       0.83389011       0.06592885       1.76266532      -0.39557570      -1.06294198
N       15.66040152       7.17155847     -14.62882234       0.72244426       1.70976759      -0.94238878      -0.44191745       3.06607884      -6.80316780
N       15.51105543       9.34525540     -16.74074272       0.47734622      -0.29298164       1.36149083      -1.46066942       1.22214253       1.58564869
N       13.35642697      10.97956294     -16.65147439       0.58411580       0.61169608       0.68551708       1.81221851       4.53884465      -1.71086258
O       10.82557529       6.88889796     -13.23347162       0.97314822      -0.79938086       0.23237370      -0.67416789      -1.26466413       0.47778105
O       10.07059682       8.88551878     -13.53620171      -0.23981178       2.15533230       0.93667386       0.97161793      -1.84809333      -0.17971943
O       15.96806107       6.81868973     -13.57565066       1.51091990       0.44531907      -1.63111738       0.82717035      -2.04615707       4.79170563
O       16.45098760       7.19421732     -15.61342323      -1.33744518       1.70027882      -0.26924595      -0.50632381      -0.73442394       1.37390623
O       12.91289520      10.94181817     -17.79856129       0.06178432      -0.45150843      -0.36614373      -0.02829156      -0.39414737       1.47870700
O       13.93635156      12.00523396     -16.17951785       1.58550027      -1.17201583      -0.08811648      -1.24645178      -1.76516717      -1.05120588
H       10.96188336      11.05738530     -16.02862052      -0.50543803      -0.23377629       0.13755219       0.88215363      -0.55285789       0.67330728
H       10.17470421      10.18403169     -14.88374386      -0.24447343       0.44544601       0.06105588       0.02808798      -0.77386824       0.73876969
H       14.10827090       5.92068265     -13.56069106      -0.32179741       0.00789401       0.16593308      -1.00232852      -0.35943707       0.86536605