1296
Lattice="1123.653552008837 514.6090926563819 -209.0239033078401 0.0 366.2878555140638 -614.47388612865 0.0 0.0 146.1441484429328" Properties=species:S:1:pos:R:3:momenta:R:3:forces:R:3 energy=-1487604.1461221916 free_energy=-1487604.1461221916 stress="1.5094197627064448e-06 -6.436074401966491e-07 1.0861320696637252e-07 -6.436074401966491e-07 2.1035688044573664e-06 9.893853341801973e-07 1.0861320696637252e-07 9.893853341801973e-07 1.6859136071620285e-06" pbc="T T T"
C    -1252.07699248   -1480.14210916     265.14736050      -0.63625668      -2.70036118      -0.74386253       0.79626405       2.87772993       2.55864273
C    -1251.87588458   -1480.95254722     264.10072808       1.16743515       0.53296419      -0.54929443       0.04827224      -2.39822199      -3.33674544
C    -1250.92144404   -1479.33172075     265.56114788      -2.02485930      -0.21132257      -0.92593280      -4.44792961      -2.02460368       1.26871190
N    -1253.26031999   -1479.97420645     265.83324607       2.07403082       2.61897187      -1.01160945       0.96729481      -1.56416421      -1.55766765
C    -1250.77279096   -1480.71194886     263.19385073      -0.56464312      -0.17902711      -0.46536950       0.47049710       1.77281463      -1.30815210
N    -1252.97159971   -1481.90511302     263.60339005      -1.14547339      -1.66743267      -0.11233606      -2.23154212      -0.52729963      -0.72936190
C    -1249.75026286   -1479.75399995     263.55229797       0.24966326       0.87767498       0.23694383      -1.62364453      -3.20736539      -1.37092467
N    -1250.93967784   -1481.05644982     261.88021089       0.83767806      -2.17784835      -1.52080963      -0.87447184      -0.94985057       0.15683559
C    -1249.77260177   -1479.27025738     264.90748207       1.14812342       1.35123915       2.11494490       3.68974654       1.69097620      -1.44341905
N    -1248.70164825   -1479.41159374     262.53401539      -0.02969233      -1.27249916      -1.66951048      -3.26958726      -1.57364622       1.49154040
N    -1248.69033417   -1478.64112574     265.48941440      -1.28244003      -2.02339021      -0.84198733      -0.71353843      -0.55643578       0.87542421
N    -1251.14276597   -1478.82887403     266.95320215       0.32195978       0.65025423       1.78348225       0.43584321       1.22646907      -2.41386408
O    -1252.76923371   -1482.98298999     262.99403094       0.80699532      -0.34212827       0.70714099       0.77708338       2.61295261       1.54737986
O    -1254.16083879   -1481.52699482     263.78758821      -1.75873622       0.47597192      -0.69088933       2.54398134      -0.45175424       0.12385981
O    -1248.65094062   -1479.90359886     261.39527989      -1.05708588       0.08024294       0.97454771       0.60626550       1.09319246       1.94322027
O    -1248.04607743   -1478.55246909     263.04035851       0.64815351       1.56509749       1.33838791       2.89214257       1.74987148      -1.54162831
O    -1250.62735104   -1479.50753011     267.82533276      -0.89763265      -0.66132184       0.87828313      -0.83646402       1.31796600       0.39632143
O    -1251.82319067   -1477.78210580     266.98268239       0.06868788      -3.49212854       0.94690470       1.35840569      -2.07853627       1.49198389
H    -1253.17398408   -1479.68188771     266.76673619      -0.14952394      -0.35935150      -0.31817498      -0.05308159       0.43454817       1.10086948
H    -1253.75919240   -1480.83288204     265.70369995      -0.38008240      -0.51357585       0.00491763      -1.06118119       0.12662713       0.22384000
H    -1251.74405242   -1481.59181066     261.64802601       0.29647246      -0.34195523      -0.19998393      -0.64527366      -0.32750874       0.40412314
H    -1250.27150414   -1481.24851793     261.16219696       0.26556006       0.09352002       0.49202202       1.13432415       0.75771271       0.66237748
H    -1248.69492092   -1478.64032194     266.50499589       0.40419879      -0.00649427       0.12457279       0.18015514       0.36843420      -0.63996389
H    -1248.00864112   -1478.13162084     264.95603211       0.02472920      -0.16991755       0.47665209      -0.14356148      -0.36990788       0.09659691
C    -1130.38556238    1701.33029946     -48.04356853       1.03040259       2.59235555       0.18640733      -2.21018060       3.29232999       0.67872694
C    -1422.46352586   -3484.48373537    3147.81192986       1.92912612      -1.05232997      -1.45788183       0.19762787      -2.56578616       0.78986220
C    -1130.78328503    1700.34667521     -48.75227846      -0.33280887       0.61636020      -3.20264647       1.31919375       3.83693375       2.05947639
N    -1130.32329739    1702.44865526     -47.36789958       0.67782179       2.08326166      -0.05302662       0.64514236      -4.37470246      -1.71342740
C     -924.85797013   -1794.70625845    3630.43406084       0.79222398      -0.70364704       4.46647108      -1.00648435      -0.89135894       1.24356051
N    -1422.37663108   -3485.61188307    3148.15922351      -1.10927681      -1.84474364       2.90502338      -0.19762787       2.56578616      -0.78986220
C     -923.93544745   -1794.51019304    3631.38470616       1.22127030       0.16712153       0.74828200       4.97612628      -0.13919255       0.16929254
N     -925.66176243   -1795.15421848    3629.76995437       0.29570410       0.38031069       2.34779501      -2.24390493      -0.51878541      -2.39960877
C    -5281.40077777    -854.24476010    3087.53207019      -3.66977508       2.54217328       0.36840700      -0.67441149       0.13175817       0.74481688
N     -923.31633258   -1795.70361295    3632.01571576      -0.37753100       0.39933071      -3.43933295      -2.41363999       0.68400417       0.30850658
N    -5282.17639328    -854.09322994    3088.38865631       0.58086301      -3.12083824      -1.45765875       0.67441149      -0.13175817      -0.74481688
N    -4530.43811600   -1079.18175661    5833.65643867      -1.56155672       0.16443198       2.21088805       0.98224819       2.47801414       3.13166186
O     5929.77565946   -3524.01521915   -3909.87795868       2.61803348       1.84612192      -2.63265233      -0.09242575      -0.03437515       0.00080805
O    -6345.65928055    3447.83012008    6012.54394243      -2.63242927       3.32722554       1.06775724      -2.67200326      -0.29415355      -3.45106852
O     -924.10840002   -1796.56021635    3632.38412083       1.95459115      -1.81761096       1.40793997       1.10761185       0.83083493      -0.62990729
O    -3950.72849502    2727.47152449    4787.21310201      -0.50130673       2.67142960       1.32685928      -2.46610811      -3.88797802       1.30852897
O    -4529.84857812   -1078.03214096    5833.58510742      -3.25962350      -3.45717724       1.14183526      -1.65947190      -3.29192740      -0.12223881
O    -4530.75958665   -1079.61678308    5834.80377684       1.00492109       2.20555880       0.84689083       0.67722371       0.81391326      -3.00942305
H    -1130.61986061    1699.36425129     -48.79834953       0.05524468       0.32352126       0.01937908       0.26501939      -3.12844890      -0.68731418
H    -6345.11455610    3447.89008731    6013.24749001       0.02418819      -0.37040592      -0.08959244       2.67200326       0.29415355       3.45106852
H     5928.87422876   -3524.35048086   -3909.87007774       1.28686659       0.99324917      -0.11203273       0.09242575       0.03437515      -0.00080805
H    -3950.27202834    2728.19117356    4786.97089856      -0.30199207       0.35766689      -0.24386612       2.46610811       3.88797802      -1.30852897
H    -1130.57017226    1703.27692721     -47.86640864       0.35001984       0.09501720      -0.09150232      -0.01917490       0.37388761      -0.33746175
H     -923.10198272   -1793.97195363    3630.85714420      -0.14790392      -0.31186673       0.58351421      -0.41970886       0.03449780       1.30815643
C      903.30410094     865.07735419   -2157.04603761       0.04844657      -0.52930155      -1.03906209       0.35500796       2.95090497       0.69772542
C      903.16383109     866.57114599   -2157.17059447      -0.32967868       0.63813305      -1.38773199      -1.10804460      -2.18866936      -0.70297079
C      902.94895163     864.30605435   -2158.16413904       0.52262187       0.54083459      -0.61545750       1.91904333       3.37958373      -1.05648863
N      903.67517554     864.54611210   -2155.82244649       0.02292054      -0.11533938      -0.21905979      -1.14846063      -2.79567401      -3.86432857
C      902.59224063     867.19764536   -2158.32889822      -1.10394297      -0.73286824      -0.32585733       0.20945899       0.04985051       3.01314640
N      903.31723560     867.32354235   -2155.96361750       0.66523109      -0.15372043      -0.29482547      -2.70618971       0.54404392      -3.38381653
C      902.52071121     866.42025568   -2159.45261528       1.68156562      -0.09885752      -0.69746790      -1.18526439       0.94136426      -0.84879797
N      902.08731529     868.42674107   -2158.27944948      -0.82650065       0.02618516      -0.63838819       2.07767495       1.25434701       3.88607265
C      902.68168818     865.07576809   -2159.45295285      -1.45368523       0.20864188       0.39830513      -1.00366547      -2.56984828       1.36529710
N      902.02041754     867.13767237   -2160.65509107       0.32045117       1.38208493       0.41687962       1.00650146      -2.37802330      -0.17925269
N      902.39139510     864.39872477   -2160.57487790      -0.17877737       0.24573147      -0.87964611       1.57120993      -1.15346133      -0.69723944
N      903.38378736     862.96898549   -2158.23182283       1.28581512      -0.76604728       0.09649403       1.56668138      -3.00207319       3.74500578
O      902.49177686     868.25826824   -2155.76487920      -0.11274781       0.66403957       0.14702909       2.10296419      -1.06472365       1.35416267
O      904.25461160     866.96942844   -2155.33706926       1.14424104      -1.05855566      -0.13678406       1.65863836       1.19898264       3.32497968
O      901.19229236     866.61819185   -2161.38080686      -0.52897973      -1.00321181       4.09548669      -0.62947945       0.08480476       0.19170690
O      902.61911112     868.13116372   -2160.91876991      -0.93260339      -0.35127736      -2.18099797       0.43532998       2.04954087      -0.52411758
O      902.70406217     862.28299930   -2158.91627451       0.58066212       0.18193318      -0.83943420      -1.00992088      -1.67053175      -2.53451450
O      904.26898846     862.34350254   -2157.45308544      -0.22685912      -0.26005213       1.04308913      -2.07099807       3.42797866      -2.00575955
H      904.18129100     863.67051882   -2156.01464273       0.41375129      -0.25949515      -0.19666856      -0.60888120       0.13117014       0.44957938
H      904.18413241     865.14266638   -2155.29111435      -0.41388261      -0.48136212       0.42882114       1.54967892       1.96743553       1.97498926
H      902.24321408     868.98822665   -2157.35667549       0.13346517       0.38365236       0.78187581      -0.85644868      -1.69419587      -2.55210697
H      901.44746735     868.71659128   -2158.93159879       0.06902436      -0.35067878       0.36944545      -1.17530685       0.95200399      -1.75105415
H      902.32676749     864.93275415   -2161.44930898      -0.34883684      -0.10759756      -0.40554760       0.01812719      -0.67742185       0.80259096
H      902.92721030     863.52619749   -2160.57746482      -0.30710234       0.15248798       0.08081982      -0.96765672       0.26261160      -0.70480882
C    -1385.67673780   -1405.04952592    1286.97340909      -1.58149401      -0.49363613       0.38112185      -0.68032504      -0.74534678      -2.24056086
C    -1387.11161036   -1405.24889243    1287.09470884       1.02921776      -0.09744483      -0.84409779      -1.33799913       0.61515145       0.84572240
C    -1384.84586456   -1406.05318336    1287.61249231      -1.22775008      -0.74491627       0.23109803       0.64353953       2.35780146      -3.98370453
N    -1385.26072501   -1404.16641632    1285.98291691      -0.41863084       0.79368554       0.41070175      -0.66198798      -2.07973053       3.03280814
C    -1387.78597636   -1406.36334241    1287.70146402      -0.54555425       1.10723372       0.63293814       3.83830635      -2.67914928       0.91327015
N    -1388.00644398   -1404.34720967    1286.42407626       0.42812275      -0.20291869       0.02133751      -3.18582991      -0.27965018      -1.43880254
C    -1386.74384562   -1407.32909026    1288.46919865      -0.05780030       0.22402391       2.28421875      -2.93885734       3.16458625      -1.59408904
N    -1389.03423882   -1406.75107101    1287.48765728       1.36024784       1.43196837       0.70029054       2.34662204       0.55587594       0.74172716
C    -1385.36852188   -1407.03483915    1288.37880912       0.08398649      -0.72007193      -1.85586990      -0.33877464      -4.11704391       3.09171608
N    -1387.26524057   -1408.38330844    1289.25176946      -1.11624378      -0.22945910       1.48111350      -0.17134765      -1.24240620       0.34451117
N    -1384.48308984   -1407.84988059    1289.06418572       1.99160455       1.42784012      -0.80334634      -1.60535818       4.20758636      -3.85165671
N    -1383.53439978   -1406.36844608    1286.82016509       1.57693413      -1.44139591      -1.21054824      -1.98903778      -0.64193480       1.47807353
O    -1389.26631301   -1404.45113237    1286.54242292      -0.72339950      -0.46956384      -1.45335432       1.71522210      -0.32595356       1.11866195
O    -1387.65355218   -1403.54912589    1285.58100289       0.11413430       0.06394375      -0.95599522       1.51779085       0.90141418      -0.14799759
O    -1388.42561607   -1408.75540283    1289.09744072      -1.84118618      -2.53171260       0.93522369      -0.71402675       0.66863756      -0.63083721
O    -1386.57909440   -1409.00247815    1290.05826940      -0.64680569      -0.00432957       0.13178531       0.91277723       0.60097699       0.08680559
O    -1383.30213385   -1407.52422401    1286.39687351      -0.04875985      -1.08168084      -1.06160413      -0.08959231       3.13117048       1.01472231
O    -1382.91095821   -1405.33485099    1286.67673895      -0.36888529      -0.69676198      -0.02231939       1.36132873      -0.99054388      -1.04306556
H    -1384.31429596   -1404.34544756    1285.81210662       0.17424017      -0.35557062      -0.02432216       1.37996349       0.82271320      -0.88152776
H    -1385.93953074   -1403.64144288    1285.43237289       0.18558290       0.07650400       0.26935938       0.38378700      -0.41661874       0.39950244
H    -1389.65738149   -1406.08249391    1287.14742990       0.00074276       0.43426423       0.41648917      -1.11350731       1.04410035      -0.73030404
H    -1389.28507185   -1407.59415691    1287.90920284      -0.02931945      -0.24261733      -0.21759100      -0.52889981      -1.43851305       0.82721075
H    -1383.57382136   -1407.75623384    1288.81730762      -0.33475212      -0.05729661      -0.04962116       3.11095521       0.24407739      -0.63599289
H    -1384.72524284   -1408.45787404    1289.71221402       0.17406513       0.17360868      -0.42286266      -1.85474866      -3.35720071       3.28380706
C     2050.44881777    1172.03658088   -1260.96170925       2.95840276      -0.72592416      -0.13145383       3.23467189      -9.26541623       2.40632401
C     2049.48507400    1171.18456273   -1260.38984431      -1.26956261      -1.77772603       0.18295069      -0.58836493       1.60351908       0.62592513
C     2051.77487632    1171.26523728   -1261.06142381       0.94832411       0.38992032       0.41696009      -3.17170265       3.70023488       1.03589686
N     2050.18289775    1173.08623636   -1261.58004028       1.18836713       0.13011719       0.04203361       1.05799066       5.81621265      -4.77765048
C     2049.64250797    1169.89422350   -1259.88602087       1.94187603       0.03957942      -0.49521644      -0.49987173      -2.73627998      -1.55625300
N     2048.21356602    1171.77519649   -1260.16359869      -0.02925629      -0.05650229      -0.91668212      -2.64887525       2.15588078       1.56560143
C     2050.84511112    1169.28939936   -1260.21151207      -1.86230125       0.54945167       0.07692863      -0.28302879       0.32546158       0.98462016
N     2048.59046141    1169.01359419   -1259.48655360       0.75305604       0.66902300       0.04677982       0.05021625      -1.52499569      -5.69286076
C     2051.94769133    1170.01246429   -1260.56112179       0.75562642       0.48583668       2.40877128       1.95875601       1.20036761      -0.91958046
N     2051.28620810    1167.98392512   -1259.75836358      -0.73304306      -1.38886403       1.16606954      -1.87596553       1.52474929       3.08583276
N     2053.22715773    1169.44071448   -1260.48612779       1.68798460      -0.38744419      -1.34278327      -2.58967972       1.46906622       1.53982102
N     2052.81163438    1172.18898378   -1261.52878370       1.67371677      -1.35505780       0.50806297      -0.73994995      -0.63181620       1.50181676
O     2048.14168712    1172.99984111   -1259.85188400       2.40078994       0.46991847       0.04535157       0.34512935      -2.37722015      -1.01191320
O     2047.19571828    1171.06163839   -1260.15104019       0.54864251      -1.31847538       0.98576537       1.02249476       1.08071486      -0.46270684
O     2051.60938308    1168.00029533   -1258.57719483      -2.68706457       1.71738562       0.89293137       0.29733741      -1.14213313      -0.37767110
O     2051.23939569    1167.07270740   -1260.51259315      -0.65786125      -0.04564581      -2.08225141       0.48332013      -2.02661458      -1.27669018
O     2052.85889878    1172.23126789   -1262.74671788      -1.51993187       0.60951486       0.58417712       1.33646787       1.10103972       0.22317459
O     2053.34563887    1172.88491131   -1260.65445409       0.34539775       0.93478910      -1.45177558       0.00871566      -0.72995773      -2.28907923
H     2051.01563134    1173.39745119   -1262.16753452      -0.13997410       0.34863083       0.36379066      -2.14943457      -0.00455233       0.76931423
H     2049.25588708    1173.17837724   -1262.01989464       0.04049187      -0.30363850      -0.02728284       0.92059040       0.39025179       0.74811183
H     2047.85523052    1168.99826674   -1260.48337172      -0.55408989      -0.22145350       0.28404311       3.32340406      -0.91701522       2.83272243
H     2047.88326532    1169.50298382   -1259.11899719      -0.21186361      -0.02934927      -0.28077553      -2.46467969       2.44472607       3.29788404
H     2053.18283081    1168.60269201   -1260.94487425      -0.65525246       0.38151250       0.47513358       0.75869280      -2.80258234      -1.23432570
H     2053.87181522    1170.06161633   -1260.83148057       0.31544965      -0.20178667       0.06614804       2.21376556       1.34635905      -1.01831430
C     1590.08775300     537.56461555   -1216.68697787       1.07024936      -1.65810244      -0.14122492       0.98563844       2.94809549      -0.71144210
C     1590.56266086     536.77422907   -1217.72887702       1.07142060      -0.93053436      -1.67875931      -1.09263282      -3.78926004       0.32791260
C     1589.85468338     537.01780861   -1215.38523958      -0.01491500      -2.00744545      -0.79593694       0.13252680      -1.90816233       1.92649144
N     1589.96709484     538.95004594   -1216.87792648       0.21068659       0.07977825      -0.62790234      -0.31077017      -0.59596480       3.07527858
C     1590.75659763     535.32621382   -1217.48662709      -0.79479277      -0.04610827       1.89443817      -1.16701465       2.92133480       0.66589517
N     1590.71537588     537.30389073   -1219.07598531      -1.12573744       0.13091931      -1.12417942      -0.31365314      -0.47753860      -3.63132768
C     1590.38856195     534.85590237   -1216.22797388      -1.56587559       0.76490306      -0.95084030       0.54888260      -1.37821573      -1.20405476
N     1591.19929091     534.50516975   -1218.46587698       1.58694928       0.11250175      -1.09984942       0.65708944      -0.60552371      -1.54536503
C     1589.96442316     535.62149628   -1215.10033679      -0.49806602      -1.37482791      -0.19894175       0.78918569      -0.85326982      -0.92640327
N     1590.43835605     533.33971302   -1216.17629672       0.28053041      -0.93207339       0.52381561       0.04092046      -2.64542290       2.37610581
N     1589.86666351     534.95747251   -1213.91558532       1.14384964      -0.69432733      -1.50089683      -0.25517839       0.80472473      -0.80983330
N     1589.67185599     537.77062240   -1214.12508659       0.29155925       0.49668905       0.61117185      -0.43250850       1.55756731      -3.58174918
O     1591.35653680     538.32587594   -1219.12299684      -0.65258355       1.52770255      -2.10263902      -0.04986946       0.22789411      -0.24330264
O     1590.25849572     536.77070860   -1220.20440127      -1.48348888       0.92828118       1.30143256       1.27551873       0.90661408       4.91901244
O     1591.51947897     532.71480584   -1216.22918201      -1.26210779      -1.22987156      -0.72831997      -1.40281970       2.15323418      -0.56684129
O     1589.39371581     532.71652769   -1215.88517007      -0.68956889       1.04618359       0.19268792       1.32763242       2.00234366      -0.94156309
O     1589.52627096     537.26337774   -1213.07570782      -1.57484808      -1.33509028       2.45549876      -0.25438000      -2.18730721       2.82620003
O     1589.60367764     538.96460782   -1214.23806442       0.72007357       0.90888259      -3.21718585       0.26794250       2.41939949      -0.35909542
H     1590.21510399     539.41261785   -1216.00898416       0.45141777      -0.20835367       0.22139976      -1.01480739      -0.19872920       0.15781749
H     1590.35768056     539.56172383   -1217.54029991       0.70645076      -0.48956358      -0.04100253       0.61645938      -0.80046689      -2.02196596
H     1590.93808330     534.81951897   -1219.40463044      -0.28354302       0.08361331       0.00076098       0.50033489      -0.06185952       0.52058855
H     1592.15247296     534.13440413   -1218.38484107       0.17942354       0.08236852       0.15547486      -1.02668942       0.01072280       0.08564053
H     1589.40019390     535.33420694   -1213.11284283      -0.33692423      -0.07288619       0.32222643       0.19937710       0.29546862      -0.18118032
H     1590.12061854     534.00225166   -1213.89873293      -0.34922629       0.16884672       0.51213309      -0.02118481      -0.74567852      -0.15681859
C     1418.51766024    1238.28398532   -1869.03292585      -0.33725820       1.21726966      -0.56220380      -1.46092765       3.83474777      -3.55524345
C     1418.49232714    1237.04678605   -1868.43313353      -0.46989028       0.32948639       1.38786123       0.44682605      -1.99696241       3.61818953
C     1419.38297166    1239.35171643   -1868.65456212       0.00250614       0.13989055      -1.36228035       2.68104004      -0.49817140       2.21984478
N     1417.62338105    1238.56690356   -1870.08874384       2.04314195      -1.08027087       0.12296024       1.80202941       0.44548455       1.33532483
C     1419.15442675    1236.86359197   -1867.15236500       0.63365565      -0.75742481       1.91474889       2.48533045       2.75974819      -0.58435952
N     1417.63907970    1235.92541419   -1868.86046696       0.17338315       0.17134811       0.17072517       0.84208511       2.59878650      -1.89284164
C     1420.04929572    1237.98395503   -1866.78578437      -1.12435659      -0.01287037      -0.79899702      -3.05188899      -0.68035130      -2.54540319
N     1418.96140876    1235.83432898   -1866.26665936      -0.89706304      -0.08168700      -0.89389257      -3.85352277      -1.54560812      -2.95914658
C     1420.24833307    1239.22558783   -1867.48887149      -0.28918988      -0.54756966      -0.75386302      -3.92863357      -3.44541947      -1.50973361
N     1420.56144429    1237.90949310   -1865.50366749       0.43213310       0.77026597      -0.09514373       1.32880926       1.87993888       1.25489427
N     1421.11246204    1240.09476266   -1867.00397486       0.94911069      -0.90021412       2.01691992       0.83530293       2.47900383       0.49566259
N     1419.46335894    1240.72172230   -1869.31707595      -1.45190942      -0.10202365      -2.43448656      -4.03131153      -1.07931703       1.47008157
O     1416.68458044    1236.19070802   -1869.56856035      -1.30767966       0.36140775       0.85997059      -0.85932669      -0.26374394       0.13118776
O     1418.03596827    1234.81319804   -1868.68283911       0.97733635      -0.57904618       1.11963097       0.18539898      -1.81497254       0.89669886
O     1421.26447440    1236.96276086   -1865.30180817      -1.13194658       1.93903527      -0.72498851       0.72441395      -1.44387227       1.52519991
O     1420.40801748    1238.87551677   -1864.72845166       1.55871213      -0.06327863       0.00441699      -0.02992950      -1.29318753      -0.25119035
O     1419.89154385    1240.81030465   -1870.43027404       0.06482917       1.07229661       1.61949654       0.64820655       0.51179653      -0.18989523
O     1418.77509631    1241.57524246   -1868.69349192       1.68958405      -2.33944704      -1.62635825       2.13440503      -0.86326111      -1.27526308
H     1417.58598451    1239.42130690   -1870.63643403       0.51815339       0.29846872      -0.18844480       0.48995014      -0.44167154       0.63521847
H     1417.04126278    1237.81654452   -1870.32555890       0.54788773       0.03749424       0.04376927      -0.94598926      -0.64574033      -0.52953194
H     1419.67522765    1235.27877990   -1865.87590402      -0.32908677      -0.12494210       0.06024882       1.32032095       0.27779053       0.41657639
H     1418.27870268    1235.14503237   -1866.76774823      -0.33869412       0.26107314      -0.14409427       1.80105780       1.50961419       1.74023129
H     1421.03919203    1240.21573911   -1866.00385855      -0.37599082       0.12872973       0.19597715       0.33698533      -0.50397142       0.15354198
H     1421.02648413    1241.02359792   -1867.37437029       0.05014040       0.37934456      -0.07666339       0.09936799       0.21933944      -0.60004363
C      136.47561005     603.98127470   -1159.05252394       1.45121302      -1.44730937       1.57851166      -0.57085226      -1.34690256       4.05440130
C      136.36169479     604.57669409   -1160.24396204      -0.29690874      -0.98367369      -0.02116689       0.46403029       2.81151762      -1.38755089
C      137.88030977     603.78701476   -1158.50404988      -0.98552724      -0.06358187      -0.33560492      -3.95128030      -0.40213239      -1.67539855
N      135.26086565     603.66657203   -1158.33705237      -1.10573839       1.61355002       1.62887463       4.51175084      -2.21155369       1.84678660
C      137.45133987     605.12193368   -1160.93787263      -0.13251216      -0.96480260       0.03570367       0.47440660       0.83206204      -0.54305378
N      135.07732628     604.99491003   -1160.82206611       1.29694567      -0.35112497      -2.07515082      -1.58720553       0.90768582       2.27116811
C      138.69265902     604.92266300   -1160.33802743       0.22966649      -1.72665854       1.64209363       1.67864755       2.40154444      -3.59898455
N      137.28438395     605.93490427   -1162.07260946       0.46329371       2.13934043       0.53811441      -0.41802793      -1.07053128      -3.05009683
C      138.98920085     604.17143898   -1159.24755319      -1.13615116       0.88555822      -0.79530636      -0.33006923      -0.63110533       1.80980671
N      139.98909766     605.61034082   -1161.01655653       1.70414980       0.32057397      -0.22158692      -1.25361890      -3.46964467       1.72940324
N      140.22684438     603.98477365   -1158.77964663       1.71126800       0.63207906      -0.88735386      -1.42159445       0.58051870      -0.55942891
N      138.05277520     602.92157454   -1157.43676004      -0.26378393       0.85574393      -1.23946127       0.23215032      -3.42073428       3.75384226
O      134.33925227     605.91233412   -1160.39228292      -1.63935912      -1.13752198      -0.42692106       2.13485580      -1.54307958      -0.37433435
O      134.78588800     604.28395409   -1161.72291390       0.06721515       1.62821812      -0.04051224      -1.09514392      -1.03191292      -2.34790709
O      140.02157375     606.79471953   -1161.11630544       2.96296564      -0.02289694       0.54443413       0.37644573       0.35610759      -0.63148011
O      140.88080281     604.76501438   -1161.20932159      -2.09649248      -1.60125332      -1.66181748      -0.66647052       2.14628324      -0.77397154
O      137.26598678     602.84219594   -1156.48838107      -0.07127464       0.43174092      -0.02152919      -1.25306602       1.51971643      -1.01101089
O      138.98508236     602.10425846   -1157.36563267      -2.73978007       0.12965357       0.22878091       0.79088565       1.09584688      -1.64838424
H      135.33902875     602.84146959   -1157.64422515      -0.24782574      -0.39803732       0.36796964      -0.07372060       2.29545843      -1.58652190
H      134.37324389     603.78987358   -1158.71791110      -0.07005542       0.39571856      -0.59845088      -1.15655040       0.33916551      -1.14172296
H      136.28260716     605.90920328   -1162.59998136      -0.15699505      -0.32192756       0.29595277       3.48026970      -0.18581523       1.91950121