24
Lattice="13.9116 0.0 0.0 0.0 13.9116 0.0 0.0 0.0 13.9116" Properties=species:S:1:pos:R:3:momenta:R:3:forces:R:3 energy=-27448.787457854127 free_energy=-27448.787457854127 stress="0.004410216645078415 0.01111637402513465 -0.004495548915858771 0.01111637402513465 0.005971251321671256 0.000549317931070528 -0.004495548915858771 0.000549317931070528 0.004734609395491071" pbc="T T T"
C  -11564494.75538874 -2262276.01000301 -3711192.04071498   -5271.61835842   -2011.27777837   -7569.24761989      -0.02706528       0.02266186       0.04530037
C  46505564.63895266 -5224910.70856869 21829657.58664623       5.73404822     -72.79314028     272.57699425       0.17159122      -0.17822099      -0.03451811
C  7776145.51356829 1777387.04847380 -3217131.15345854  408322.00653485   73142.51660435   -3932.96148643      -0.04500008       0.01482320      -0.01279487
N  21096734.21811382 -254640062.99456280 183363405.07583582    -157.94679805    -285.33259401   -2121.73785157      -0.01565129       0.05903455       0.03450503
C  6170855.91543727 4146159.52828112 -2302193.08377713    1137.80319213     639.67145255    -369.47209887       0.28842951       8.22665161       7.35909526
N  -41725197.05675705 9569859.76875957 -16882044.71435612  167552.27962818 -149743.55307202  287361.34768388       0.08125291      -0.22670832       0.00647355
C  -4766472.97942801 -3798912.80312495 4477308.00186100   -2196.46231544   -1166.19942348    1934.60497221      -0.12522900       0.08264994      -0.00784332
N  -15854414.67190449 -36458544.55312570 24206944.96474875    -145.57507753   -4226.35627472    -350.33042810       2.74063544      -2.63484208       2.17134737
C  17182194.45706752 -6696318.83671367 -5202766.60546928     346.73472813    1466.52821339    -460.50813738       0.01914512      -0.00932314      -0.06723267
N  -82404952.09502488 73727522.15036137 21423591.11738265    4729.93727671  -21022.42059089  -16716.62900846       4.26313900      -6.32251491      -0.24754390
N  11736833.22726839 -14119820.14381260 -7975264.49419508    1761.78520813    6940.82368999    6673.50347175      -4.40017866       6.48714016      -0.32960550
N  34104450.67245599 -3663553.77736546 34354500.73425547  -13887.64950139   21046.40916868    3428.78362718       0.15379033       0.10749881      -0.12644825
O  -188265146.53898203 50278919.49580148 -72171304.97259833 -127782.67442751  101813.35306317 -287384.90361137      16.16672757      16.37003011      -8.23813591
O  195227111.87079072 25493527.20715625 -544965865.43709981   -1853.22278688   30537.95789960   -9015.11730319     -16.21417186     -16.21135930       8.34990597
O  14791696.36721027 202965647.86739406 264600171.75249872 -422653.08763887  -27219.68289863    9370.46065521       0.00157908       0.02547382       0.07537304
O  -5498097.88218953 -63618049.54658116 -52370146.67681888     -68.63394149  -30839.50784407    6397.20064045      -0.15873159       0.17796611       0.02245643
O  62781260.27171061 -44272328.35434165 -181593167.76633382   33404.96322566  -84354.92717927   -3339.00660637      -0.22680173      -8.27673521      -7.39184095
O  -62630241.10923022 33495680.25410486 367452587.99471956  -39041.44093678   65773.13699796   -2833.76043488       0.06303195      -0.15540439       0.02420987
H  -14893432.85975609 -4745891.94740574 9085682.34114833       6.91142671      19.18130348      -8.75537269      -0.00677361      -0.05057281       0.47807662
H  -5065076.40983914 56646739.41237578 -24702301.80900354     169.96231238     -64.73191695      -0.92167533      -0.11054099      -0.13116307       0.29582465
H   598304.74314533 12353351.90799054 58900832.78729173      27.95001621      -1.77270648     -56.18403304      -2.77196901       2.62992879      -2.23006961
H  5567882.15818201 -35024193.75333954 -26602638.35208867    -458.36110371    -408.21125249    1746.78147520      -0.00617280      -0.02892141      -0.12227267
H  -11286397.38066987 -884493.00274409 10360826.43201999       7.41448589     -51.48514542      10.11499200       0.01809199       0.00432707      -0.01251066
H  49241206.32562248 6686998.71911370 -5827809.43341348   -3956.80918247   20088.67340566   16964.16114684       0.14087177       0.01757959      -0.04175176
