24
Lattice="13.9116 0.0 0.0 0.0 13.9116 0.0 0.0 0.0 13.9116" Properties=species:S:1:pos:R:3:momenta:R:3:forces:R:3 energy=-27548.663308898605 free_energy=-27548.663308898605 stress="-0.003428121513325124 0.0021021440955902603 -0.0029633243584152396 0.0021021440955902603 0.0008218924285172507 -0.0012972689911673577 -0.0029633243584152396 -0.0012972689911673577 -0.001152574527758375" pbc="T T T"
C        5.15441763      -0.67067019       0.09849655      -0.33447803      -0.28072450       0.27496229       1.59598421       5.56546164      -2.36653330
C        4.97154375      -0.14854207      -1.23790931       0.06293491       0.70263647       0.45697231      -0.85856810      -1.75605543      -0.67372049
C        5.71837251       0.42259023       0.91678813      -0.11434748      -0.93876334       0.99169236      -2.48108576      -2.58806435      -1.46894956
N        4.84929966      -1.85319396       0.52316898       0.33635860      -0.66827443      -0.14347588      -1.08167084      -2.72217796       3.29163897
C        4.93192453       1.22405781      -1.68705448      -0.05466231      -0.40091720      -0.28381358      -0.64906685      -0.66182258       0.51349906
N        4.34918861      -1.18755435      -2.34711734       1.50433728      -0.12756207      -1.11477956       9.33936418       0.83903453       5.48072039
C        5.23917537       2.23655051      -0.72915439      -1.30797210      -0.62308326       0.97291507       0.56167659      -2.90843052      -4.17866408
N        4.40020419       1.59851244      -2.90102058       0.64547143       2.15748821      -0.32433855       2.48224745       2.68447026       0.73595316
C        5.55761650       1.75180542       0.48326079       0.20394032       0.76539426      -0.16764430       0.33882742       3.01320009       4.47894483
N        5.33021997       3.60928707      -1.29892104       1.77037579      -1.67809788       1.61633383      -0.12188374      -1.27763135       1.58823613
N        5.54066455       2.71403284       1.48917260       1.15722195       1.35802915      -1.47064354      -2.06404488       3.11625422      -4.44287162
N        6.42671560       0.07477606       2.08992940      -0.81514058       1.64859676      -0.05646018       4.20907422       1.95262840      -0.88803154
O        5.03488748      -2.10914585      -2.71336579      -0.98272073      -1.76863182      -0.96258701      -0.49991824      -0.88992025      -0.16702706
O        3.37664044      -0.77942091      -2.69371748      -2.27395391      -1.15773327       1.90492938      -8.94342228       1.29175880      -4.07988856
O        6.28891401       3.94906750      -1.95244064       0.75441793       0.07171985      -0.16814145      -0.06356853      -0.19725705      -0.11337212
O        4.35725538       4.26164954      -1.04431385       0.09595633       0.69934329      -0.22241262      -0.77389290       1.54137625      -0.08987512
O        6.90093957       0.98704119       2.78582562      -1.36094622       0.05084091      -0.11192977      -1.53371010       0.01366704       0.86190711
O        7.03276423      -0.97838683       2.06803446       0.62711574      -0.89743347      -1.86316631      -1.21918803      -2.01906228       0.56910962
H        4.68359649      -2.03408329       1.53902903      -0.36840405      -0.52039791       0.10055892       0.87764263       0.82448189      -1.39342345
H        4.66777153      -2.70167006       0.04331098      -0.03445927       0.56269528       0.10045097       0.01708605       0.03976389      -1.37242870
H        4.81124357       2.42044096      -3.40049928       0.22429329       0.52376941       0.00260944      -0.63816010      -1.26599825       1.01598752
H        3.92026651       0.97209585      -3.44707108       0.02791611       0.57705533       0.30795556      -0.94234100      -1.48696316      -1.31489524
H        5.50149984       3.73512561       1.23343492       0.38388686       0.48880131      -0.22544523      -0.08106722      -1.95726170      -0.00710880
H        6.02472011       2.59391470       2.26679331      -0.14714186      -0.54475109       0.38545785       2.52968582      -1.15145215       4.02079286
