1296
Lattice="19.642997192966405 -5.211675941308677 0.009750616060219453 0.0 28.303494240798216 -2.864375805118141 0.0 0.0 31.8064460555701" Properties=species:S:1:pos:R:3:momenta:R:3:forces:R:3 energy=-1487810.2662310402 free_energy=-1487810.2662310402 stress="0.002324512427437608 0.001644953986805731 0.0002938792127911352 0.001644953986805731 0.005365411355378921 0.0030935313508767166 0.0002938792127911352 0.0030935313508767166 0.005569854042717236" pbc="T T T"
C       -0.21901914      -3.96672255     -10.44898194      -0.81755293      -0.18634322      -0.11502687       0.12201398       0.84692257      -0.97439918
C       -0.78284213      -2.67738476     -10.19450817      -0.36276808      -0.18906146       0.22587362      -0.67932731       0.01206865       1.24751122
C       -1.04347515      -5.11702861     -10.20259508      -0.07426824      -0.41659527       1.04448968      -0.68975754       0.84906532      -0.26808555
N        1.00526359      -4.05217606     -10.98096427      -0.58334903       0.33655317      -0.47441346      -1.14065110      -1.12682973       0.34568770
C       -2.11483102      -2.47521446      -9.70237336       0.90650963       0.45230241      -0.73764715      -0.57730953      -2.08768824      -0.01466353
N        0.00664063      -1.52896363     -10.34870341       1.11323070      -0.28377905      -1.25836559       1.52265873      -0.98776917      -1.57426032
C       -2.96347041      -3.63254528      -9.71472473       0.75684692       0.62596427      -0.94489369       0.80741292      -0.29049597       0.50044958
N       -2.53644751      -1.33721373      -9.19491752      -1.72718072      -0.19537231      -0.25856322       0.47515639       1.89861242      -0.56549735
C       -2.45089004      -4.96785011      -9.92406942      -0.24740865      -1.44681446      -0.41952166       0.07388790      -0.86881615      -0.84203379
N       -4.32528071      -3.42275111      -9.32999971       0.28393800       0.36091906      -1.14177111      -0.52599577       0.68777692      -0.87648652
N       -3.34198656      -6.00507991     -10.01072622      -0.61465808      -1.13412903      -0.27618937      -0.32368151       3.20293113       2.04202830
N       -0.47871965      -6.41025176     -10.49070922       0.17141336      -0.13889925      -0.03383837       1.68739157      -2.72722294      -0.18843385
O       -0.34161167      -0.45303868      -9.99104309       0.51105553       1.17441630       1.10669258      -1.39135446       2.76533441       1.39568249
O        1.07269073      -1.60119891     -10.95081563       0.62145483       0.43543429      -0.19466001       1.29887107      -0.45090611      -0.48079493
O       -4.88095838      -2.35419597      -9.71763896       0.33819039       0.02974036      -1.27162365       0.46356176      -2.03852415       1.10505026
O       -4.88579225      -4.30059070      -8.66876785      -1.36444411       0.08805527       0.23516527      -0.18703713       0.91320722      -0.55864683
O       -0.65410828      -7.39031164      -9.76193715      -0.39264112       0.15665468       0.02822984      -1.53974309       1.19843535       0.59240342
O        0.30034597      -6.58712101     -11.44148161       0.77445557      -0.41085176      -0.32758329      -0.74908123       1.64361788      -0.22718641
H        1.11094414      -4.93816313     -11.45889749       0.10699277      -0.15183313      -0.33390615       0.85781065      -0.03536119       0.14545630
H        1.54909484      -3.20401686     -11.13387576      -0.27206367       0.05786558      -0.18699778      -0.50667463      -0.45041342      -0.05371722
H       -3.49042650      -1.02962719      -9.09527352       0.01774441      -0.16042704      -0.20175479      -0.04540332      -1.09183625      -0.13025551
H       -1.91744895      -0.58273482      -9.49590495      -0.29842548       0.00179269       0.33867255      -0.14423929       0.12509082       0.64207774
H       -3.16197508      -6.91260665     -10.35343404       0.20531579       0.29817462      -0.44372125       0.52547466      -0.81444479       0.08619738
H       -4.13121655      -5.75031917      -9.36043629      -0.05815604       0.20857549      -0.55405720       0.49212853      -1.20701232      -1.29443282
C        3.63034304      -2.37705307      -0.77171137       0.40168397      -1.37532992       0.13849038      -0.00733895       0.03362935       0.51898070
C        2.65457711      -2.22880776      -1.79174634      -0.43759853      -0.78395662       0.22021266      -0.42620818      -0.88535367       2.39021104
C        4.93751237      -2.31042103      -1.25340810       0.00847896       1.67368374      -1.41412466       2.14695482      -0.74854112      -0.36921621
N        3.41309493      -2.58674809       0.54590824       0.13962460       1.02521934       0.76278001      -1.31446003      -0.13440177      -0.83098873
C        2.98558608      -2.02604791      -3.10475285      -1.73889127      -0.11316520      -1.24714680      -0.30859349       0.50335762      -2.59575255
N        1.23398467      -2.43109661      -1.40651392       0.98591197      -0.31566156       1.32739751       1.53895048       2.60107446       3.11782923
C        4.34554132      -2.00046750      -3.61456447      -0.74355591       0.79226577       0.88891847      -0.97148401       0.39355650       0.42989991
N        1.95441926      -1.76320592      -3.92430746      -0.60790098      -0.08942636      -0.23786749      -0.89935011       0.02861351       0.26519410
C        5.34105740      -2.17581487      -2.66475566       0.73494187       0.09428090       1.22874216       0.80514791       0.65694856       3.03151441
N        4.70458019      -1.69423410      -5.00558328       0.86670743       0.14112767      -0.09263897      -0.27723780      -0.99532721       2.39999285
N        6.63459760      -2.05169408      -2.91554336       0.51818174       0.40108293      -1.25988662       0.77672141       1.12678557      -3.33770524
N        6.04111966      -2.54064548      -0.30479565      -0.72037044      -1.86338578      -1.22935795       0.02450032       0.22710057      -1.39687871
O        0.51745366      -3.06937896      -2.07735125       0.55349305      -1.34734176       0.54123656      -1.84265111      -2.24844551      -2.65873754
O        0.82455739      -1.90872493      -0.35461744      -0.03011180      -0.33170205       0.86874026       1.16528778      -0.21375816      -0.45788353
O        3.92815330      -2.07076794      -5.84138194       0.18336962      -0.64308687       0.74087408      -0.83998121       0.18233513      -1.43405968
O        5.78148394      -1.17040480      -5.24064351      -1.53161738      -0.27206894      -0.99088321       0.14102545       0.28823932      -0.35807583
O        7.11644765      -2.95352211      -0.71674345       0.03207729      -0.38441783       0.30580842       0.41305039      -0.45771584       0.17763890
O        5.91659754      -2.30452166       0.87954731      -0.10524203       0.34733519       0.41574602      -0.56093895       0.57297783       1.18754570
H        4.26828252      -2.75029045       1.07565328       0.07884604      -0.01834067       0.19456841      -0.83165363       0.08429186       0.27651388
H        2.45162398      -2.71548737       0.89731745      -0.05165513       0.12356290      -0.03374146       1.12828157       0.28940598      -0.39259522
H        2.09700472      -1.38985921      -4.82869293      -0.14044580      -0.05935085       0.22013916       0.05299269      -0.03010623      -0.66314098
H        1.00292634      -1.74116901      -3.54195238       0.46294736      -0.27914769      -0.28469757       1.04920605       0.01880720      -0.68564252
H        7.43692134      -2.17058293      -2.33960460       0.07350986      -0.01451955      -0.27787275      -0.49207138      -0.43108863       0.75746420
H        6.85756001      -1.67324757      -3.84647301       0.01063339      -0.07095997       0.14334335      -0.36518279      -0.50600447       0.65285725
C        2.95821897      -1.16511892       4.34335300      -0.60205151      -0.44290196       0.43694332       0.33536152       0.38602464      -0.26000084
C        2.16328141       0.00509146       4.30371214      -0.17386665      -0.49812925      -0.02898098      -0.36983746       3.23705033      -0.13596906
C        2.43165246      -2.11701766       5.23722677      -0.72789430      -0.02609162      -0.51887064      -1.06709038      -2.96635731       1.15137442
N        4.11144913      -1.29321973       3.63017182       1.70016848      -0.33190616      -1.24097525      -1.68675257      -0.22207337       1.40228822
C        1.15367352       0.37575726       5.33230027      -0.28755560      -0.77740981       0.35314327       1.26019220      -0.15595083      -1.91534127
N        2.59727919       1.13077985       3.37543856      -1.22665732      -0.68788849       0.43368404       0.36093050      -1.27368296      -0.88030570
C        0.63169185      -0.70914076       6.08674568       1.87275936       0.09473021      -0.11833591      -2.04362478       1.13953540       1.09672885
N        0.73983671       1.62224513       5.49880929       0.53267102      -0.41861791      -0.37270251       0.23614826       2.27027631      -1.36851313
C        1.15898157      -1.97362434       6.06082329      -0.17978378      -0.71601880       0.97869247       3.65253465      -2.36737105      -0.05164518
N       -0.58182787      -0.47856041       6.94213710      -0.41389250      -0.72537465      -0.11088647       0.50259502       2.80684778      -0.31326306
N        0.79749096      -2.97131243       6.92498323      -0.45326418      -0.84911551       0.06037751      -0.23274432       0.86032170      -1.19523661
N        3.09870720      -3.44990746       5.27062437      -0.92004606       1.52004021       0.07325174       0.74472781       1.51708897      -0.74093123
O        2.18749712       2.26934705       3.50877825       0.22528569      -0.98495259      -0.11760334      -0.25401174       0.11691559       0.55657871
O        3.32632612       0.87117459       2.38587338      -0.45080405      -0.02344672      -0.77191645      -0.56985678      -0.37954236       1.54926307
O       -1.31722673      -1.36735883       7.24520911      -0.64934632      -1.24818229       0.69343653      -0.51758763      -2.62052875       0.06546651
O       -0.89250572       0.67338340       7.29532494      -0.56412504      -0.25805848       0.22092113       1.28907739      -0.36139388      -0.51199732
O        4.16444672      -3.60286292       4.64701468       0.22575637       0.57290274      -0.46374173      -0.00436676       0.61978059      -0.23304319
O        2.67210232      -4.40679402       5.86043881      -0.54281683      -0.79143277      -0.74982731      -1.38881024      -0.68125323       1.08632857
H        4.64588775      -2.11130162       3.89403127       0.12854436       0.09580436      -0.11628378       0.17328747       0.37872642      -0.57804819
H        4.37266137      -0.49866309       3.07525834       0.34106251       0.08975221      -0.14148363       0.17099370      -0.16416329      -0.24378944
H        0.12602324       1.85270539       6.24610959       0.31938011      -0.19885673      -0.03477140      -0.64278540      -0.52276230       0.47613803
H        0.91996005       2.46410172       4.85312713       0.37530488       0.08773103      -0.20878350       0.27880527      -2.61262493       1.06862226
H        1.18071122      -3.92091642       6.82072356      -0.18073471      -0.15575046      -0.33970291      -0.32909456       1.12378821       0.01480439
H       -0.08263125      -2.78448182       7.39084259      -0.25279680      -0.20478450      -0.35950844       0.28414835      -0.50174817      -0.03722231
C        1.03820167      -3.57941936      12.61552070      -0.71295584      -0.30699571      -0.34333404      -2.41863800      -2.13319408      -0.52535558
C        1.32958588      -3.71327075      13.97867285       0.59838182      -0.17971601      -1.10231128       0.14884196       0.78466480      -0.23776939
C        0.28481707      -4.69741016      12.05866870       0.33261010       0.91638735       0.78968095       2.44467986       2.00315568      -0.24701504
N        1.16370393      -2.45824088      11.92184607       1.57383554       1.08327023       0.39800586       0.63387263      -0.09571692       0.26167464
C        1.00756440      -4.84017456      14.74187624      -0.37091365      -0.48657371      -0.34031338       1.40641356      -2.92035364       1.00758875
N        2.10740273      -2.67740121      14.57065581      -0.43095726       1.64432483       0.80309489       3.00326739       0.62118516      -0.95916614
C        0.41564290      -5.99934368      14.10839512       0.77162901      -1.85608178      -0.60869587       0.01260712       1.27359052       0.27805004
N        1.57675779      -4.97967512      15.97554413      -1.03102663      -0.35118844      -0.47434935      -1.17299866      -1.75734274       0.73082206
C       -0.01543818      -5.85976203      12.72921097      -0.06854952       0.91248123       1.49074162       0.58585330       1.14439834       2.47270034
N       -0.06840702      -7.06533883      14.93588023       0.65226471      -0.71025321      -0.86848877      -1.15515628       0.16134741       0.92177508
N       -0.84780139      -6.72397622      12.25618795       0.38075406      -0.28193370       0.72992254      -0.36888521       0.65863543      -3.07865818
N       -0.05442139      -4.60381607      10.62184499      -0.71428484       0.05700137       0.81809194       0.81443413      -0.54291603      -0.23646081
O        3.03649589      -2.14335305      13.88912674       0.66974345       0.00541473      -1.02411847      -1.99242373      -0.45859616       0.13868631
O        2.01342768      -2.41791193      15.74146749      -0.94328945       0.75795778       1.83682947      -0.45923593       0.08058914       1.02079105
O       -0.24633363      -6.89950047      16.15029253       0.76139152       0.03641980      -0.41463992       0.93270349       0.48478664      -0.20796699
O       -0.43625016      -8.15173031      14.47204304       0.92416102       1.67949643      -0.93180277       0.44913644       0.13656191      -1.30568237
O        0.77072889      -4.92863832       9.74282543      -0.12634393      -1.22087966       2.09788328      -0.92337789       0.48860507       1.29253233
O       -1.17319475      -4.21481393      10.40151142      -1.66714141      -0.27428816      -0.28150422      -0.45514683       0.15251179      -0.64089639
H        0.67946534      -2.39948226      11.05040789       0.17967066       0.06597107       0.01908316       0.31227441       0.54738112      -0.26690880
H        1.80637233      -1.75701137      12.27520258       0.23738720      -0.02411504      -0.30636076      -0.27517289      -0.16955583      -0.46872150
H        1.40686734      -5.89219095      16.57633211      -0.30356091       0.39330441       0.14781133       0.25871755       3.15276808      -1.89902895
H        1.87890982      -4.09178578      16.35283231       0.13858687       0.20381573       0.22303027       0.05962876      -0.55535073       0.71327163
H       -1.35141546      -6.53183443      11.41694387      -0.10920019       0.15772850      -0.09934937      -0.30113638      -0.29904545      -0.17949306
H       -0.98906313      -7.49305275      12.78452685      -0.00977618      -0.13111144      -0.07319059      -0.96145701      -3.15978844       1.32651154
C        7.91388618       0.70993942      17.57236078       0.09028105      -0.06958824       0.77315256      -0.59921311       0.34685393      -0.03764192
C        8.42450263      -0.44651260      16.97049079      -1.09184899      -0.41864122       0.10479821       0.00844499      -1.50476683      -0.35579409
C        8.54961556       1.99589127      17.20621742      -0.57116752       0.17978034      -1.91428843       0.46478433      -2.27335290       0.40648613
N        6.83385660       0.59945887      18.35484854      -0.73393722      -0.20599471      -0.04977259      -0.51184601       0.59884436      -0.29330356
C        9.62708251      -0.40069980      16.18261969       0.31578994      -0.98474221      -0.48853870      -1.21699700       0.29605915       0.74670681
N        7.69727062      -1.73752740      17.08920838      -1.08595531       0.10291306       0.02760682      -0.79521992       0.12768403      -0.06590294
C       10.29881464       0.79739439      16.02756707      -0.24277876       0.13856506       0.08323480      -1.37998115       1.15825099       1.26434876
N       10.18963801      -1.42751151      15.63459934       0.54166672       1.15622029      -0.30905184      -2.27761213      -3.41607620       0.67833478
C        9.79153753       2.00512411      16.51735803       0.40561382      -0.51396224       1.35739798      -0.04984931       0.96146989       0.05269837
N       11.61062170       0.78212087      15.50333343      -0.18791498      -0.34817001      -0.23844493       1.55856540       1.03553337      -1.02665178
N       10.52990122       3.11394187      16.32492797      -0.10917328      -0.46707353      -0.61538091       1.03459567      -2.45363699      -0.50478625
N        8.05638676       3.16958369      17.73889641       0.04162038      -0.03313615       0.50126766       0.05425602       0.04697056      -1.90643533
O        7.99978558      -2.62493046      16.27875491       0.89616650       0.13360502       0.53435392       0.42110634       0.32328184       0.33671665
O        6.76434254      -1.95963593      17.89448685       2.07444083       0.78481480       0.42665926       1.55686243       0.93760865      -0.91438712
O       12.51900426       1.15030426      16.24296035      -0.40175649      -0.59652682       1.27411561      -0.33223770      -0.60450104      -0.54180586
O       11.74562890       0.53200389      14.29851622       0.77138457      -0.20820269      -1.91760688       0.10346954      -0.30609443       0.87929249
O        8.44113899       4.26064065      17.28423216      -0.21280014       1.26147331       1.07119810      -0.39764476      -0.32349409       1.07985010
O        7.14849208       3.00615528      18.52663373      -0.21455943      -0.10691880       1.38200656      -0.99656247       2.43076387       1.41049202
H        6.53224261       1.52835620      18.68199941       0.12869989       0.58892831      -0.25039987      -0.20740054      -1.17451632       0.11081738
H        6.25382424      -0.27064447      18.36276791      -0.22167255      -0.25348676       0.44475761       1.31023561       1.22132187       0.05086975
H       10.95344019      -1.26621896      15.07796743       0.02333688      -0.24682829       0.03366734       1.90375952      -0.37455725      -1.34641598
H        9.73145741      -2.35299125      15.75621455       0.11028675       0.19958748      -0.19719851       0.79021726       1.34990318      -0.45153944
H       10.31098841       4.05482799      16.30768211      -0.24565344      -0.19995765      -0.26825654      -1.44251847       1.59421207       0.48068335
H       11.32705690       2.88981572      15.78023649      -0.26497135      -0.23754269      -0.00452123       0.75206416       0.49403968      -0.15726508
C        8.70349403     -12.43555660      16.30208080      -1.17410208      -0.21967787       0.21356309       1.36989924       0.42793596      -1.20609207
C        7.88838322     -13.43105663      16.91884870      -0.24268095       0.94907146      -0.07464270       1.04850296      -0.19331148      -1.31942453
C        9.75658361     -12.85920042      15.37962875      -0.52533236       0.66980317       0.58190823      -0.87708414       0.96715424       0.29170086
N        8.42704180     -11.15901546      16.51348548       0.07297839       0.78265984       0.20056149      -1.26697685       3.28323592       0.45024184
C        7.98255683     -14.74309587      16.42150298       0.95748930       0.60000629      -0.67805726      -0.99114769      -3.22000374      -0.32097260
N        6.86887430     -13.08302835      17.80663240       1.46955361      -0.16534780      -0.56577175      -1.47356068      -0.04105610       0.15209655
C        9.06254640     -15.20617602      15.60565719      -0.31905032      -0.24636870       0.49034112      -1.16569465       1.36748922       0.52802640
N        7.00502733     -15.71797433      16.66987370       0.39944663       0.81719393       0.07539308       0.20668928       4.43770283       1.04430927
C        9.89179768     -14.23761185      14.99344156       0.26081381      -0.31567278       0.20661133       1.89492878      -0.51983915      -0.71091338
N        9.16194939     -16.61127644      15.27742192      -1.32201818       0.41576094       1.96317496      -0.38639237       0.75701303       0.78494726
N       10.84069365     -14.69360310      14.14580746      -1.43758682      -0.47309421      -1.13409613      -0.16033881       1.45483106       1.05366017
N       10.62117115     -11.76434041      14.79860617       0.99742210      -0.17543400       0.02915981      -0.32632433      -4.23231371       1.16478322
O        6.90382487     -12.06417100      18.46825814      -0.01796776      -0.39161058       0.02335204       0.88402436       0.98527199       0.47929800
O        5.88344093     -13.81380071      17.89300774       0.75977227      -0.46501860      -2.87711183      -0.44568831      -0.48518721       0.21917343
O        9.73070143     -16.92295403      14.26537086      -0.16856435       0.97063723       1.75160300       0.75006201      -0.67338044      -1.49591193
O        8.71776219     -17.46354636      16.03011468       1.51731060      -0.63606786       0.86844821      -0.17438448      -0.26796972       0.62260908
O       10.55493004     -10.69110200      15.30496077       0.46847161      -0.15895022       0.47226543       0.06301843       1.97319933      -0.34098433
O       11.43592027     -12.12236411      13.95760679      -1.27034331       0.88945399      -0.93712346       0.06539315       0.62842728      -0.09034449
H        8.87544885     -10.27141763      16.08706479       0.08687508      -0.37701974      -0.14012450      -0.55289948      -3.06403166       0.83284374
H        7.57280850     -10.95222583      17.09086600       0.04545091       0.35712977       0.02210327       1.43523134      -0.42897837      -0.80246291
H        7.45600922     -16.57239359      16.77574317       0.08066434       0.34525612       0.22749490      -0.02859882      -2.06552001       0.32371563
H        6.36975616     -15.31108519      17.38338567       0.00593076       0.09598029       0.02097360       0.22979582      -1.29358269      -0.71116510
H       11.61947766     -14.08787339      13.92696352      -0.03197193       0.10884483       0.13105572      -0.59990389      -0.27157691      -0.21627003
H       10.81149171     -15.68344869      13.94521170       0.04096333       0.15176547       0.02943136       0.36374406       0.32061295      -0.36152657
C      -12.44011160      20.56632945       2.11161874      -0.41413707       0.21390758      -0.46750843      -1.61642292       1.98854014      -0.65859451
C      -11.07689105      20.62802943       1.73040521      -0.72473655       0.78038313       0.20614807       1.26474002       1.10247213       0.33006631
C      -13.20541019      19.39575582       1.77051750       0.16036195       0.43485993      -0.02389271       0.16705597      -0.72787892       0.12481815
N      -13.04250335      21.67768203       2.61946354      -0.30149284      -0.21092616       1.76957330       3.54227441      -0.21998513      -0.31365387
C      -10.27010498      19.49723194       1.52771794      -0.70113449      -0.49482825      -0.49556408      -2.50661359      -2.89083259       0.81341301
N      -10.42624175      21.89376303       1.60968705      -0.54062379      -0.18693588       0.16825907       0.58780707       0.24410770      -0.89794858
C      -11.04281600      18.26237154       1.67270066       0.71925422      -0.22812357      -0.58304117      -0.41305158      -1.61948188       0.60225127
N       -8.99974497      19.43060604       1.28044997      -0.73465253       0.78544806       0.29430310       0.78242948      -2.30972457      -0.42895037
C      -12.49003512      18.14704254       1.70820089       0.29020263      -0.09243817       0.78699383      -0.24097345      -0.54931765      -1.27710366
N      -10.39114295      16.99274111       1.92482078      -1.27749696       0.45656120       0.17506799       3.35559796       1.87858568       0.14820541
N      -13.14976912      16.95494372       1.54149242      -0.08017434      -1.98841085       1.42993955      -2.36545221       4.61706188       0.04683035
N      -14.65256358      19.40729997       1.63468848      -0.10553299      -0.61829617       0.27204444       2.71139616       3.84793927       1.65308853
O       -9.21844982      21.94907303       1.38696519      -0.85189991      -0.73978950      -0.65773988       0.33481860      -0.53475874       0.28308084
O      -11.05827730      22.93413399       1.57972451      -1.35554042      -0.60959701       0.42174231      -1.04386293       0.78353469       0.44547627
O      -10.99218846      15.96447037       1.94538110       1.67387528       0.00007723       0.09789453      -0.86848495      -1.73581079       0.12296843
O       -9.13940152      16.99081210       2.14982429       0.35138414       0.65991175       1.17955778      -1.82346245       0.26781537      -0.72370879
O      -15.27238287      18.41160761       1.49489844       0.76991543       0.65090814       0.91862956      -1.69112716      -2.62244097      -0.81614046
O      -15.19762886      20.52589492       1.71134950      -1.39802313      -0.94243049       0.58667635      -0.05141880      -0.60207282      -0.13180037
H      -13.97437777      21.50889552       2.80431168      -0.07927106       0.07641009       0.09729321      -2.09109087       0.47495795       0.60552617
H      -12.47124634      22.54045814       2.87758537      -0.09937081       0.00829993       0.07061426      -1.57275219      -2.08933471      -0.67928142
H       -8.48777049      18.51485489       1.21120512      -0.06782349       0.04354361      -0.15561764      -1.15196681       1.40006797       0.33829552
H       -8.57168099      20.29267996       1.21005632       0.01748654      -0.16772120      -0.01730758       1.44339033       1.72487459      -0.26463596
H      -14.18762248      17.09819939       1.50283090      -0.23243278      -0.17153782      -0.01322481       1.52251207      -0.57251842       0.16908625
H      -12.73850402      16.10361806       1.71390243       0.21164968       0.14287821       0.12447194       1.13522852      -1.74250728       0.20925335
C       -2.02881816       9.29766868       2.28526219      -1.03846003       0.09652010       0.34169362      -0.08816844      -4.19049302      -1.24223317
C       -2.33805604      10.60048722       2.48103592      -0.61796690       0.72942490      -0.13500826      -1.14104861       2.11602679       2.91735248
C       -1.97289900       8.76081510       0.93654131       0.10979803       0.40796611      -0.77637349       2.05461268      -0.84725603       0.87550217
N       -1.91111331       8.47327672       3.33929404      -0.30124868       1.13331319       0.14899777      -1.34501782       3.56500138       2.32865427
C       -2.75654838      11.43890557       1.43786366       1.05259886      -0.35906029      -0.68182913       0.49447467       2.02875642      -1.56943684
N       -2.61575015      11.01419174       3.89463851       1.02837668      -1.09067357       0.42742963      -0.27721796       0.85969614      -0.65227218
C       -2.48926714      10.94701277       0.12553362      -0.04733702       0.09088724      -0.66542461      -1.67688271       3.19896683       0.84463689
N       -3.27782367      12.65861364       1.67100564      -2.86455305      -0.32036516      -0.59375046       0.23478060      -1.25817577      -1.27503392
C       -2.01680507       9.67776186      -0.12852875       0.80799452      -0.86183348       0.32751934       0.12647646      -0.25183690      -1.28019938
N       -2.93027314      11.83000481      -1.04527026       0.85941756       1.35777715       0.25590380       1.49387134       0.15405269       3.50794619
N       -1.62878023       9.41308474      -1.36502016      -0.17494954       0.85003229       1.52309058      -0.09801577       1.04514409      -0.27307320
N       -1.30714102       7.42772635       0.66166275      -0.92971008      -1.11241904       0.75017028      -1.14570084       1.12838173       1.10760664
O       -2.80134124      10.15514407       4.75690490      -0.04233072       0.00122201       0.07924569      -0.39207099       0.64028800       0.80047375
O       -2.69858028      12.19467336       4.21679805       0.30469950      -0.67420592       0.12816480       0.26863196      -0.22995050      -0.72113169
O       -3.43289478      11.23850969      -1.93844609      -0.58989126      -2.81281567      -0.53351232      -1.34136853      -0.84286653      -2.66621456
O       -2.78380190      13.03794631      -0.99226760       0.30834451      -0.40697171      -0.44041327       0.05106708      -0.23070471       0.12402071
O       -1.05683367       7.16169046      -0.50847565      -1.68223132       0.63928178      -0.10047046       0.23166603      -0.70611453       0.73917849
O       -1.09100939       6.65640932       1.60203365      -0.46911806       1.53628279       1.43237319      -0.17262938       0.63514863      -1.12312008
H       -1.95508329       7.54466318       3.19151466      -0.01006739      -0.12445204      -0.06013670       0.34362352      -3.48878897      -0.91831872
H       -2.48945669       8.87356244       4.18585473      -0.10409040      -0.00340128       0.12214572       1.91973766      -1.51351462      -1.88132311
H       -3.45978346      13.36660818       1.01531653      -0.29256547       0.10084865      -0.20056473       0.07097903       0.05924462      -1.71282037