1296
Lattice="-21.703376830245993 9.725747979112459 8.094757466371771 0.0 23.275163988214548 13.714170014244239 0.0 0.0 -27.14131921954887" Properties=species:S:1:pos:R:3:momenta:R:3:forces:R:3 energy=-1487857.493231503 free_energy=-1487857.493231503 stress="0.0031479175453455227 -3.5445981279500817e-06 -0.0005904791881023846 -3.5445981279500817e-06 -0.0011456636630670079 -0.0009125606688081924 -0.0005904791881023846 -0.0009125606688081924 0.002203673436520253" pbc="T T T"
C      -20.66133732      14.55033362       0.79643692      -0.10242001      -0.04417961      -0.66456302      -0.45374145      -1.36092533      -1.17266194
C      -20.42428349      13.37129841       0.03682451      -0.15151396      -0.42290408      -0.60845826      -0.12781535      -1.99768740      -1.86484195
C      -20.80963752      14.33005493       2.19126053       0.66154878      -0.77672153       1.10352587       0.31347525       0.07058369       1.88731208
N      -20.83038674      15.72068636       0.19213475       0.19800631      -0.60710528      -0.62031358       0.37745948      -0.84374215       0.53168725
C      -20.38135821      35.25810267      14.30974405      -0.10297995      -0.00856830       1.07065792      -0.20518545       2.16790188      -1.92224017
N      -20.39992349      13.47344328      -1.46150549      -0.28883426      -0.34086286      -0.55770027       0.09847537       1.43096822      -0.43171144
C      -20.35055035      35.14966969      15.70898964       0.39091902       0.28833589       0.35430194       0.69218470       0.83578306      -0.07639552
N      -20.45460441      34.24933432      13.45716758      -0.15620686       0.30276059       0.44605700       0.49199335      -0.40945246       1.22615164
C      -20.52205858      13.03453385       2.81666108      -0.48694365      -0.46207533       0.32682322       0.71879826      -0.67742657      -0.52679494
N      -19.87567484      33.92536072      16.31753690       1.10874840      -0.18623257      -0.55041219      -2.11747874      -0.52991676       0.64006490
N      -20.27449944      12.85345760       4.11329617       1.79062803       0.17257042      -0.85595617      -0.92652926       0.31373050      -0.23811061
N      -20.98008329      15.44723485       3.10724638       0.11899419       0.18881132       0.34573070       0.33170063       0.81507057      -1.06393540
O      -20.37682280      12.49751694      -2.22047048       0.25312736      -0.76767225      -0.56831282      -0.19863523      -0.09948878       0.94269134
O      -20.36846657      14.59732749      -2.01285232       0.80185912      -0.04199499       0.95827034       0.05978093      -0.80581778       1.28859158
O      -20.38938981      33.57050707      -9.74616283      -0.24232979       1.39172151       0.02093483       0.17007870       0.41557424       0.19836820
O      -19.10773755      33.20880065      15.75118832      -0.45704425      -0.80242666       0.33987566       1.24141967      -0.34462936      -1.39382350
O      -20.83088314      15.29717199       4.29516224      -0.75932458       0.20047364      -0.59910024      -0.06629479      -0.40946279       1.07827889
O      -21.20932683      16.60492740       2.68826533       1.28708480      -0.20057787      -0.16610341      -0.16624790      -0.67282093      -0.95668713
H      -20.84627291      16.42569289       0.85848652       0.04427750      -0.15579068      -0.02871002      -0.36760116       1.99407599       0.83271659
H      -20.58820128      15.89360962      -0.77674165      -0.20557616       0.10996756       0.07563932      -0.07136714      -0.48906553       0.23964609
H      -20.16721410      33.34098242      13.70480260       0.01183637      -0.03541513      -0.32163208       0.05020178      -1.08965688       1.07375787
H      -20.42002160      34.32608082      12.46888626      -0.01880767       0.20041415       0.32699662      -0.17146240       0.85615737      -0.61038885
H      -20.66039450      13.59446995       4.66358489       0.20470202       0.10550920       0.13779513       0.36608585       0.31972462       0.93004935
H      -20.26743950      11.91144027     -22.63764806      -0.21631717       0.10209644       0.02330407      -0.02994733       0.43805912      -0.36611966
C      -16.44863031      11.70303842       2.21596127      -0.23789987       0.82617700       0.60285016       0.50179418      -0.19958298      -1.06925087
C      -16.50864940      12.88394659       2.97548201       1.09598906       0.44853945      -0.58224342       0.58850889       0.68175720       1.78673268
C      -16.53902518      11.83155924       0.75745704      -0.73809924      -0.53821619       0.37734949      -0.51912858       0.39358310       0.99489489
N      -16.27602334      10.50301079       2.73747314       0.36697426       0.94364908       0.53566992      -0.21513966       1.33865687       1.13440886
C      -16.51795628      14.17803153       2.35858714       0.01332489      -0.36716918      -0.35117077       0.23383057       1.39381259       1.14904692
N      -16.28523254      12.79632893       4.45907130       1.56436731      -0.38883461      -0.24980268      -0.22131381       0.53191873       0.78259669
C      -16.72325521      14.24242831       0.96483704      -0.29524382      -0.11440688      -0.43055362       0.00420032      -0.25178616      -0.40933029
N      -16.32150301      15.30050059       3.10030282      -0.77501923       1.18216467       0.49049037      -0.76832721      -0.50693830      -1.20090729
C      -16.80837503      13.07328557       0.14467916       0.79200040      -0.10500246      -0.00674406      -0.54721678       1.01777901      -1.57192164
N      -16.63976762      15.53602688       0.28083780      -0.22495959       0.02221151       0.38840089       0.21023697      -2.06144728      -0.10563721
N      -17.14543984      13.21410815      -1.18202916       0.40787765      -0.13644739      -0.47982964       0.31289418      -4.01503917       2.18405152
N      -16.46961745      10.65409882      -0.02456986      -0.34703168      -0.10029766       0.25913975      -0.98021194      -2.22756026      -1.48881486
O      -15.89392542      13.80098799       5.13095328      -0.72165489      -0.55306428      -0.06888463      -0.54815949      -1.87432316      -1.49380730
O      -16.54710266      11.74307128       5.05690479       0.23194965       0.08943945      -0.89468216       0.22761739       0.87043320      -1.00021315
O      -16.05243128      15.52189105      -0.79355974      -0.45569103       1.06740414       0.53547172      -0.00059967       0.96913268      -0.00406052
O      -17.17022350      16.50164764       0.77419121      -0.15431209      -1.06520506       0.07889423      -0.24175328       1.03103627       0.39867040
O      -17.25126107      10.40806547      -0.97697010      -1.20267304      -0.24917755      -0.32645359       0.49106397       1.73243811       0.58498746
O      -15.67036563       9.77439253       0.28521252      -0.95370280      -0.29555799       0.36982510       0.49513564       0.36612361       0.62841008
H      -16.02257770       9.81082417       2.11083731      -0.18770061       0.18722963      -0.00285882       0.41076879      -1.69484848      -0.89080554
H      -16.30083581      10.29645341       3.72852576       0.12120123       0.10250233       0.04287961      -0.14105382       0.42241845      -0.29668179
H      -16.54956175      16.21492426       2.68876551      -0.23659130       0.10065882       0.02911653       0.48335765      -0.95655376       0.52066598
H      -15.99983394      15.17448694       4.06100958      -0.15577788       0.19147624       0.17436471      -0.30126346       0.39633955      -0.61214584
H      -17.29475275      12.37641716      -1.77380525       0.12503322       0.36214738       0.17444619       0.22336918       0.94491229       0.79828313
H      -17.22691963      14.08175350      -1.58252383       0.27738337       0.10865296       0.52239230       0.08706387       1.89857717      -0.94033459
C      -12.49883639       8.84338449       0.92702072       0.52554679      -0.25156216      -0.37007085      -0.13550130      -1.62404093      -0.21323779
C      -12.55563763       7.57680919       0.19620673       0.00687809       0.08980014      -1.32735200      -0.05275809      -0.58739132       0.44088628
C      -12.21545607       8.70710283       2.29215383       0.23450831      -0.85954447      -1.59331350      -0.86156471      -0.48978647       0.57656256
N      -12.68079469      10.01438195       0.34899412       0.49407784       0.66942990       0.03324868      -0.23267061       0.32318821      -1.11689721
C      -12.61645265      29.57413395      14.55579119      -0.29828722      -0.95147702       0.02668644       0.73218121       0.77408161       1.76490523
N      -12.48293977       7.54273619      -1.21430436       0.10444668      -0.90429651      -0.39830671      -0.02526085       1.52453751      -1.38599364
C      -12.60217084      29.53643755      16.02515589       0.00181149      -0.58419038       0.11767735      -0.60230947       0.25707789       0.32761834
N      -12.52736977      28.43733360      13.92961635       0.65817491       0.01157898      -0.01915884      -0.58729243      -0.19933023      -2.33697309
C      -12.38536792       7.44795523       3.06208694      -0.86419070      -0.29529208       0.13825628       0.64263356       1.62211518      -0.98675212
N      -12.83625334      28.30177970      16.76780839       0.04418898      -0.13277342      -0.19088471       0.76551608       1.80681640       0.54258721
N      -12.26163974       7.49727300       4.38294253       1.43740719      -0.57052512      -1.03673905      -0.75383542      -1.51826040      -1.21299677
N      -12.09352497       9.92160127       3.09238119      -0.94165900      -0.07346832       0.09346600      -0.95945979      -0.11218402       1.19846111
O      -12.97380264       6.63440723      -1.89795124      -0.98215584      -0.18814866      -0.62043300       0.24175895      -0.10168632       0.81230177
O      -11.93086473       8.50675216      -1.77362980      -0.46338774      -0.41475390       0.37810663      -0.47151552      -0.24630888       0.30335726
O      -13.17433821      28.37079362      -9.16628644      -0.25972344      -0.25640909      -0.22651879       0.04922406      -0.20385247      -0.97926355
O      -12.58121601      27.24007521      16.24349353      -0.22787627      -0.75804417      -0.72505197      -0.27956541      -0.93007736      -0.34512078
O      -11.19199351       9.87382050       3.91408353      -0.68537930       0.37885175       0.55156286      -0.10214145       0.71674310      -0.15042104
O      -12.94905089      10.84324048       3.07979608      -1.06954531       1.27690681       0.19327807       1.30977905      -1.38980034      -0.96844057
H      -12.91390383      10.79928200       0.94338353      -0.14709377      -0.01565470      -0.03187885       0.13647990      -0.12404445      -0.42116024
H      -12.85535435      10.07156805      -0.67295121       0.01337443      -0.07018222      -0.15952915       0.30330150      -0.04113580       1.48519439
H      -12.48485325      27.61760614      14.51038296      -0.09896402      -0.39956019      -0.25904502       0.08965135      -0.42094283      -0.33334676
H      -12.61064428      28.39582225      12.87775143      -0.07834081       0.18857611       0.12545179       0.19162440      -0.07763630       1.81762281
H      -12.01226108       8.33628563       4.82399939      -0.20771892      -0.10180193      -0.23187493       0.37805839       0.69175663       0.78629112
H      -12.41015407       6.61249266     -22.28703032       0.35870445      -0.02925485      -0.14978754      -0.03433868       0.60446944       0.34449762
C       -8.90195323       6.36524167       1.98704801      -0.32549128      -0.47625639      -0.11467890      -0.07420310      -0.99221061       0.74230074
C       -8.82552791       7.56391788       2.71842979       0.36522275       0.79383928       0.61117186       0.30284799       0.51754836       1.60538340
C       -8.95160078       6.41971232       0.58187522      -0.71904176       0.30557879      -0.72226872       0.07624341      -1.33900750      -0.94660780
N       -8.92922101       5.20817906       2.65929987      -0.17783814      -0.33020241       0.96404370      -0.07956603      -0.94542762       0.52531702
C       -8.81280916       8.79896288       2.09120055       0.05763896      -0.06780365       0.03720928       0.32769666       1.09965260      -2.73045073
N       -8.69389417       7.57996467       4.18208093      -0.68617641       0.64497339      -0.85906460      -1.06940776      -1.00215371      -0.45274303
C       -9.02313570       8.78297550       0.64044964      -0.05082622       0.55665695       0.13163464      -0.03822845       0.87736631       1.34757912
N       -8.49625975       9.93470826       2.68933695       0.36905387      -0.43016200      -0.08832182       0.25640671      -0.79599120       1.07298246
C       -9.06731217       7.61277723      -0.16004171       0.01389846      -1.09894154       0.59383360       0.17820333       1.33476173       2.61429618
N       -9.19328718      10.04506802       0.04015656       0.34809664       0.13911550       0.10986425       0.86761468       0.52175327      -3.83044766
N       -9.22345793       7.70357719      -1.42445772      -0.91129417       0.57613533      -0.03915783       0.09512467      -0.36829237      -1.54472906
N       -8.89545094       5.20148650      -0.18416680       1.10706295      -0.35177244      -0.62107329      -0.58119922      -0.62555504      -0.12367430
O       -7.99702947       8.41949668       4.76065680      -0.26407145      -0.29222878       0.72330628      -0.00875033      -0.34332270      -0.21747216
O       -9.37071154       6.75644584       4.79428689      -0.76455107      -0.12469521       0.21693504       0.68164827       0.23884989       0.06981013
O       -8.77848801      10.23876324      -1.19243924       0.49726561       0.69272908      -0.46866367      -0.84864067      -0.96700950       2.82775690
O       -9.72117422      10.96450622       0.60908956      -0.03636310       0.41139618       0.45694787      -0.19618917       0.48825534       0.87151225
O       -9.53114911       5.12802959      -1.26518950       1.25143003       0.15561820       1.01982052       1.19915005      -0.16027786       1.44265701
O       -8.24633816       4.25391277       0.28936059      -0.23430012       1.45753349      -1.08185476      -0.60020118       0.54520210      -0.75694754
H       -8.64955433       4.31840886       2.26250310      -0.01444138      -0.10165815       0.12433819      -0.39660816       0.57115531      -0.38122166
H       -9.23883776       5.15910015       3.63046641      -0.28337301       0.06130892      -0.06117865       0.51310180       0.48467362      -0.66360615
H       -8.63864875      10.84601622       2.28232422       0.13480300      -0.16411462      -0.03054592      -0.11374326      -0.25293098       0.10353903
H       -8.16736203       9.78245259       3.64900538      -0.07369289      -0.05724762       0.05779886      -0.29927161       0.89414858      -0.59023432
H       -9.37226180       6.92503397      -1.99595569      -0.16649635      -0.06571408       0.04604545      -0.17668761      -1.44055337      -0.63793633
H       -9.21841428       8.56156700      -1.90238351       0.05929961      -0.04478999      -0.17545650       0.08482704       1.26264753      -0.14624818
C       -5.30814612       3.75567280       1.13324776      -0.39875132       0.53688280      -0.08943234       1.19333003      -0.12127570      -0.36362360
C       -4.93616816       2.54368188       0.40444141       0.21259851       0.83775198      -0.71804911      -0.50192640       0.82484136       0.26115542
C       -5.56744408       3.71749496       2.53681121      -0.32614424       0.30898043       0.04051518       0.55831151      -0.85199768      -0.81889216
N       -5.27331193       4.88515543       0.45755272       0.54753273       0.65170258       0.26689442       0.06185125      -1.93949106      -1.35970000
C       -4.94080472      24.54665053      14.78036195      -0.13809770      -1.64447206       0.03387040       0.05037114       0.90407462      -0.26340074
N       -4.61338600       2.65548421      -0.99478449      -0.31381298      -1.92804615       0.05555578      -0.96926801      -0.99226669       1.21832068
C       -5.26160725      24.56627988      16.17817063       1.24183065      -0.65006624      -0.93741522       0.43964331      -1.68382814       1.54922985
N       -4.55209969      23.43566835      14.17440628       0.08518137      -0.20441476      -0.64587976       0.10143847      -1.33191580       0.33039513
C       -5.49750657       2.44633393       3.26528454      -0.64992873       0.42255078       0.22736050       0.08428879       1.97017309      -0.37178846
N       -5.15134418      23.27058681      16.89023008      -0.31505893       0.16456385      -1.06320439      -0.46853460       0.01956237       0.59233902
N       -5.61179907       2.49662355       4.59553625      -0.17274984      -0.18354432      -0.05087114       0.14936248      -1.00290169      -1.03253350
N       -5.75418910       4.98238103       3.17899992      -0.80292011      -1.14903354      -0.00499445      -1.61749400      -2.34179804       1.58865655
O       -4.50188888       1.57539199      -1.58187967      -1.03753622       0.37642052       1.08192585       0.17387001       0.72127715      -1.06330897
O       -4.49673979       3.74176278      -1.57203119       0.02893420      -0.52259032       0.24395277       0.43259645      -1.00913882      -0.51185847
O       -4.99964577      23.22090915      -9.00633824      -0.67375323       0.19266698      -0.53662057      -0.22390580       0.56905181      -1.54810184
O       -5.27720753      22.21578307      16.25718353      -0.11806249       0.33191626       0.44292722       0.11847724       0.52241824       0.59337266
O       -6.29015799       4.96169699       4.29691203       0.84703681      -0.85203961       0.97828212       0.12571598      -0.01061346       0.60260948
O       -5.50996116       6.02855066       2.66119277      -0.68046079      -0.67988430       0.29049870       0.91110515       2.11098709      -1.19759028
H       -5.20267478       5.73208200       0.90045797       0.05303417       0.26237034       0.26663645      -0.24827831       2.02750769       1.21528578
H       -4.94436163       4.82983687      -0.51062973       0.10908554      -0.02964285       0.53344867      -0.39354503       0.19679500       0.56503151
H       -4.57906683      22.54534743      14.65791262      -0.28224030      -0.02657660      -0.01425153      -0.18972185       0.61163079       0.30369448
H       -4.59689521      23.28639090      13.19194307      -0.38637716       0.13870560      -0.05001550       0.06554707       0.93144012      -0.46156996
H       -5.65394133       3.39587942       5.02376342       0.12557194       0.41757342      -0.22056016      -0.35863282       0.35976479       0.30198092
H       -5.55779310       1.66737207     -21.99624929      -0.33161033       0.07944567       0.17200516       0.23062086      -0.30563230       0.05165084
C       -1.94076630       7.61454632       3.05936070      -1.09943211       0.97655271      -0.13118584      -0.67115672      -1.15383477      -3.49716928
C       -1.74223120       8.77282939       3.80522351      -0.03778990       0.00482115      -0.63525048      -0.01772987       1.27048039       1.87282370
C       -1.68920246       7.72918530       1.59712982      -0.62367865      -0.86573391      -0.60224608      -0.11336231      -0.15962712       2.01701156
N       -2.43944012       6.48359032       3.51674876      -1.23046654      -0.62897756       0.53483073       0.32258536      -0.03135105      -0.45070001
C       -1.81622014      10.09303270       3.21156322      -0.49082123      -0.61710051      -0.44350673       0.25259096      -1.49950904       1.28008481
N       -1.60995061       8.63588581       5.24519259       0.58487555      -1.10977332      -0.41342733       0.98462146       0.55954168       0.67432697
C       -1.66187819      10.16761214       1.84142073      -0.25762957       0.95221329      -0.47168803       0.14759816       0.36572587      -1.37542913
N       -2.03856917      11.12252224       3.99341375      -0.03516025      -0.40853446      -0.42061823      -0.20006560       0.41442023       1.57295772
C       -1.48788295       9.01969062       1.02678033       0.32103638       0.97284294       0.46432901       0.01592595      -1.41215467      -1.89107925
N       -1.69981056      11.43602834       1.16996955       0.91860703       0.61072117       0.09198541       1.62635522      -1.78383380      -1.78694042
N       -1.30773573       9.04296043      -0.31118670      -0.45462457       0.01795306      -0.74487692      -0.40325812       0.30980371       1.84563649
N       -1.75924465       6.55519701       0.79222577       0.67953594       0.21460019      -0.50524553      -1.76287179      -1.15318150       0.29795213
O       -1.21609887       9.59621710       5.96745696       0.34412036       0.20336903       1.21529203      -0.85638521      -0.63791905      -1.24666421
O       -1.76352634       7.54127881       5.76056479       0.18982524       0.38025723       0.79220931      -0.15886610      -0.02757313      -0.20300555
O       -1.01237524      11.48700296       0.11959658      -0.62990866      -0.20896311      -0.48599896      -0.85927382       0.84805329       1.17720607
O       -2.37911939      12.33837978       1.56014469       0.58697876      -0.77378419       0.44327882      -0.81603374       1.26376901       0.77216867
O       -1.24520496       6.48261048      -0.30852537      -0.16866040       0.30896500      -0.25841623       0.74414037       0.44299590      -0.27559118
O       -2.46126499       5.56621128       1.17095218       0.94457859       0.52349664       0.12063023       0.96088151       0.84959000       0.03371978
H       -2.67676858       5.69522571       2.91594132      -0.05542351       0.00463576       0.06384028       0.44191243       0.73120645       0.08229473
H       -2.61014566       6.44141193       4.47648168      -0.10689972       0.15920781       0.07922619      -0.17984222      -0.35854545       1.53794559
H       -2.03396756      12.05112448       3.66635668       0.36113914       0.32801543       0.20037701       0.09447902       0.78790567      -0.66358430
H       -2.09025561      11.04282188       5.01819201      -0.11312910       0.06096706      -0.10866752       0.54314755      -0.22517741      -1.11489612
H       -1.19551996       8.15342640      -0.76760702       0.04029611       0.20976510       0.16428002       0.04231327       0.06433483      -0.32326161
H       -1.26618950       9.91626370      -0.77019398      -0.13892912      -0.34275257       0.14654508       0.27369733       0.39048211      -0.43668888
C      -19.82371286      21.93362132       5.28800767       0.85659796       0.22774714       0.91121337      -0.97567228      -3.29390480       1.34453524
C      -19.90905008      20.62310908       4.66978182       0.33304703      -0.17009492      -0.02208620      -0.40718525      -0.57861245      -2.17821496
C      -19.88744184      21.87208274       6.73877720       0.12208980      -0.47340775       0.91101018       0.59148580       1.46420988      -1.45156980
N      -19.79008831      23.03097437       4.57898848       0.65772465       0.71008423       0.72329036       0.22536791      -0.09012278       2.36816334
C      -19.98567677      19.38205845       5.35050695       0.54735184       0.10164379       0.35339378       1.02584670       0.61036279       1.55882927
N      -19.95251493      20.52605289       3.16783617      -0.43492554       0.37909676       1.11070934       1.10980817       1.38177303       1.26670408
C      -19.74885116      19.46568812       6.76026099       0.44034861       0.06354461      -0.69951178      -0.80620591       1.14082105      -0.11101852
N      -20.12937516      18.19128070       4.78294363      -0.29338966       0.36763511       0.02698038      -1.78937475      -1.17119488      -1.43989678
C      -19.83629961      20.66764069       7.49786118      -0.24961603       0.32505349      -0.57751235       0.65494872       0.65187777       0.58843274
N      -19.62144154      18.30282014       7.50866535      -0.47465327       0.16628830      -0.61170749       0.05059183      -2.84504121       1.52615323
N      -19.73265163      20.74534026       8.84675105       1.75444890      -0.04706743      -1.11772277      -0.95778085      -2.20827511      -0.94062000
N      -19.98577680      23.19383791       7.37204432      -0.50665165       0.00127156      -0.21363022      -0.10605801      -2.00911871       1.28793139
O      -20.41961605      19.56615835       2.56440044       0.41485915      -0.39779250      -1.00760910      -0.18034967       0.40317704       0.22767838
O      -19.39533920      21.47218870       2.59690172       0.38109863      -0.94318549      -1.48364181      -0.62849504      -0.85669984      -0.30671597
O      -20.25238045      18.17279359     -18.56039351      -0.09600044       0.15060911       0.57298420       0.75439821       0.43639612      -0.80853967
O      -18.89233892      17.39383421       7.08454416       0.34278565       0.46556100       0.56636613      -0.64429298       0.74728602       0.06790830
O      -19.49975268      23.40140944       8.47360500      -1.44977839      -0.37269897      -0.10102576       0.67736872      -0.32394439       0.36879308
O      -20.65817666      24.02563264       6.83113121       0.01938771       0.57097355      -0.52324481      -0.98376467       1.72206255      -1.21950851
H      -20.12462754      23.83262817       5.00357824      -0.01257279      -0.11221590      -0.00707377      -0.29735514       1.81122613       0.91288674
H      -19.82492908      23.04206207       3.63589409       0.04680604       0.17259837       0.22274178       0.15537821      -0.36861368      -3.38960622
H      -20.27677223      17.31299704       5.32151101      -0.00915511      -0.01823748      -0.11884438       0.43520990       1.45717688      -0.44578589
H      -20.67056981      18.17899266       3.88023771      -0.09061224      -0.11993259      -0.28884144       1.31759510      -0.11808315       1.26008431
H      -19.47420861      21.62271782       9.18592963       0.16384145       0.10937285      -0.20101370       0.12470154       1.21871879       0.99540870
H      -19.99866824      19.97336306     -17.63842486       0.38620080       0.27133624      -0.02764216       0.71753132       1.10005278      -1.36723439
C      -16.12108902      19.55509383       7.13369980      -1.28538780      -0.76308064       0.59683818      -1.06677495      -0.76309519       2.32584061
C      -16.37813569      20.86718323       7.72158298      -0.03055286      -0.47976061       0.45382944       1.03941951      -1.82018594       0.55418677
C      -16.06418943      19.50519783       5.73115137       0.37544821      -0.33685130      -0.00362295      -0.32751438       0.11837226       0.42699696
N      -16.06091209      18.42122651       7.90057034       0.50749588       0.03684969      -0.14801405       0.60615862      -0.03149212      -1.36871524
C      -16.40927689      22.06178508       6.96337601       0.31090078       0.28747830      -0.61751711      -0.24212405      -0.46665555       1.49649259
N      -16.47131854      20.92507707       9.16668897       1.11443863      -1.28799342       0.03979483      -1.35647988       0.59718925      -1.35400011
C      -16.42022961      21.95389281       5.57474406       0.49169112       0.22900911      -0.13556630      -0.27257222      -0.55758161      -2.43251659
N      -16.53301488      23.21984656       7.55967086      -0.63789978      -0.45441312      -0.61235404       1.16387248      -1.61807581       3.22393221
C      -16.33070744      20.67392603       4.94108378      -0.81312295       1.38413030      -0.09102571       0.54598254       0.14122948       2.27345727
N      -16.56276857      23.08496690       4.67684086      -0.44697043       0.65297469      -0.44515024       0.11986468       1.39398202       1.79574273
N      -16.53847440      20.55621457       3.69046538      -0.63044262      -0.81773423       0.32129378      -0.27557022       0.09301436      -2.62700698
N      -15.80167695      18.28347080       5.08867595       0.15937741       0.30298651      -0.63338948       1.15407730      -0.12444186       0.51758633
O      -16.27297353      21.95248123       9.78091046      -0.96504605       0.44561936       0.73309261       1.04721190       1.46024190       0.32587969
O      -16.94676107      19.97469105       9.75032459       0.73586520       0.59601537      -0.44088947      -0.06143327      -1.96118453       0.69722760
O      -16.14464529      23.07252439       3.52358814       0.11058086       0.65299734       0.63884263      -0.10138608      -0.12605384      -0.03981730
O      -17.04382290      24.13610776       5.15437358       0.01866048       0.76174277       0.35075621       0.15203005      -0.86227310      -0.29754509
O      -15.50656418      18.35651767       3.90652620       0.30719701       1.52149308      -0.10331255       0.03068091      -1.36356825      -1.04851099
O      -15.72017416      17.21736969       5.71189260       0.36299751      -0.09510570       0.23866327      -0.23821225       0.26741506      -0.65781853
H      -15.88251831      17.48949698       7.43991664       0.20785365      -0.09192469      -0.02204771      -0.38930725       1.80857723       0.62968593
H      -16.23123315      18.41262941       8.89754359       0.23835537      -0.19398828      -0.00969073      -0.05234962       0.47975920      -0.52987699
H      -16.85501778      23.88058798       6.98266585       0.27832303       0.26813800      -0.19718519      -1.04614567       3.57934849      -1.99992806