1296
Lattice="-32.94592625584023 24.172016375839046 31.296871661605802 0.0 20.706937696043127 13.37110147728544 0.0 0.0 -25.544979845845194" Properties=species:S:1:pos:R:3:momenta:R:3:forces:R:3 energy=-1487799.1998124674 free_energy=-1487799.1998124674 stress="0.0025431043912920986 -0.0005572599216433655 0.0008952733573312919 -0.0005572599216433655 0.0044662927984198564 0.001455609561010363 0.0008952733573312919 0.001455609561010363 0.004505967939683751" pbc="T T T"
C      -30.13334092      29.48165631      28.95362073      -0.22348304       0.88314046      -0.01651239       2.44244529       1.22056376       1.17016137
C      -31.12392786      28.94771825      29.78340356       0.01471296      -0.25234219       0.08611873      -0.72722426      -1.23404230      -4.57135908
C      -29.09184805      30.25636869      29.65602726      -0.31298000      -0.58371501       0.03445536      -2.16939669      -2.77536975       0.66476727
N      -30.14109466      29.34791630      27.62734025       0.84860639       0.27405772      -0.56861420      -4.23015284      -0.81014203       1.65794040
C      -31.23700750      49.70617884      44.46137788      -0.00870370      -0.60848431      -0.41710562       0.64984009       2.13629290       5.97503272
N      -32.26027138      28.36891968      29.05242512      -0.68363815       0.05220211      -0.22914776      -2.91177051      -1.30270589       0.05109906
C      -30.12941343      50.40825684      45.17103133      -0.47220631       0.25760204       0.01268078      -1.65402401      -1.18896736       0.80134878
N      -32.29818974      49.37731203      45.25591952      -0.11140390       1.21682585       0.44561517       1.18905718       0.01591656      -0.90060142
C      -29.08348799      30.36539230      31.10083606      -0.86444563       0.19541496      -0.23658434      -0.34126105       1.51692198      -0.94969607
N      -30.17815835      50.44681409      46.67039539      -1.12024882      -0.19530934       0.86545999       1.02313534       0.22840346      -1.33624022
N      -28.20284251      31.29269092      31.56919482       0.67722354       1.22518726       0.27649032      -1.11256050      -2.02789259      -0.71076863
N      -28.02522821      30.70315348      28.89984742      -0.08425007      -0.58121389      -0.32300185       0.49834439       0.66522699      -2.80148296
O      -32.27845761      27.23684911      28.51720415      -0.23533457      -0.41418937      -0.12635945       0.98076866       2.57245832       1.03812903
O      -33.29180978      29.06988157      29.14339029       1.67557209       1.75512402       1.09472008       1.48797863      -0.65682645      -0.36957243
O      -31.11539243      50.12730549      21.87734273       1.10109231       0.20003269      -0.55642564       0.86486081       0.45411100      -1.45178696
O      -29.09843114      50.81709858      47.11975658       1.11553380      -1.30095402      -0.26150344      -0.17548940       0.36941573       1.00025202
O      -27.52774887      31.82108523      29.11181599       0.58850282      -0.72948400       2.07949839       0.34510145      -0.58475013       0.28087364
O      -27.71456749      30.04329237      27.88627614      -0.93073337      -0.65072051      -1.28656564       0.22700553       0.85741972       1.19639533
H      -29.35437357      29.47578332      27.13605817       0.60685542      -0.00663698      -0.10051701       3.33769298       0.82385861      -1.88301335
H      -30.99450395      29.19314268      27.08718641      -0.15231941      -0.04243271       0.15754720       0.26981568      -0.20277143       0.42555040
H      -32.12620813      49.44984258      46.26461001       0.17017938      -0.10511829       0.04850592      -0.22447646      -0.14938649      -0.50186560
H      -32.94817669      48.68757456      44.96638833      -0.05872532      -0.17450986       0.03050965      -0.53450467      -0.32898125      -0.50873938
H      -27.88802487      31.89880902      30.81422571      -0.18794511      -0.20008365      -0.00039712       0.31098994       0.27356616       0.96843452
H      -28.17406614      31.41434671       7.00505936      -0.22063233      -0.03783057      -0.28122230       0.19200477       0.54202316       0.62229505
C      -27.79694736      22.39388883      24.07902016      -0.14091383      -0.87197132       0.30848798      -1.78477290       1.30488618       0.94581186
C      -28.46897749      23.14471321      25.10594460      -0.21730751      -1.13292066       0.17048555       1.70836291      -0.50001537      -1.48885819
C      -26.63846209      23.00923665      23.52074201      -0.89619230       1.29957824       0.60713611       0.70958331       0.27705317       0.31032025
N      -28.37714115      21.24897642      23.76294497      -1.03597265       0.01193653      -0.32046007       0.40189046       0.77219689       0.30239473
C      -27.93996297      24.34320781      25.67696257      -0.40352300       0.08899799       0.86866243      -2.48492352      -1.96085291       1.67177121
N      -29.61354089      22.50842001      25.66688856       0.58518175      -1.59878992      -0.82695941      -0.59480079       1.33995835      -3.29269236
C      -26.86584292      24.96553432      25.09137753      -1.14981855      -1.15087205       0.07916938       2.45541401      -0.12008684      -2.65990717
N      -28.51118442      24.80610375      26.77304352      -0.63209838      -1.11220831      -0.26294231      -0.52244660       0.60657607       0.80423803
C      -26.18041476      24.30425361      23.95033766      -0.31418418       0.55476992       0.68264226      -1.38809891       0.48890805       0.73372182
N      -26.31914427      26.14130256      25.63538056       0.80891785      -1.14280709      -1.38625440       1.37057800       0.84252828       0.66238115
N      -25.27007194      25.00603904      23.28646936       0.66341555       1.05554173      -0.45485828       0.16530268      -3.26176340      -1.24704706
N      -25.83579139      22.28938397      22.57269814      -0.83095794      -1.25840143       0.48484752      -5.31354707      -2.20038155      -0.21287533
O      -30.48480123      22.03655092      24.92545769      -0.23613374       0.04574265       0.11490259       0.29982503      -0.38960999       0.22213049
O      -29.76288008      22.61522161      26.81912316       0.82436244       2.10680057       0.88028115      -1.05096582      -0.46938113       4.71134733
O      -26.82856960      26.65287046      26.64307533      -0.77214851       0.53767529       0.49719711       0.34866577       0.03296015      -0.88278378
O      -25.26028622      26.63257539      25.16375205       0.13051869       0.21080650      -1.09439879      -1.52936409      -0.29512235       0.67690278
O      -24.67651834      22.51767091      22.50268327       0.70438041      -0.77264265       1.47063872       1.96904287      -0.24313799      -1.13718316
O      -26.52290812      21.39105917      21.89708597      -0.25023378      -1.33624585       0.54862085       3.11153658       2.19416036       1.31230852
H      -28.01053900      20.74504950      23.03508334      -0.07835426       0.32190313       0.01350167       1.13501333      -1.16873033      -1.76553996
H      -29.33397025      21.06316796      24.01822138      -0.25710824      -0.20343069       0.38882593       0.14292179       0.00356294       0.04760586
H      -28.12251619      25.62323622      27.19973920      -0.27985374      -0.03720706      -0.10772231       0.11407314       0.22631284      -0.03928269
H      -29.18620888      24.29176362      27.31844322      -0.13208506      -0.46156871      -0.03779321       0.24715220      -0.14895475      -0.47180659
H      -24.59563996      24.47588200      22.74609905       0.00682481       0.12021807       0.03367424      -0.40820335       0.29049199      -0.04578161
H      -24.98989991      25.80750708      23.73696008       0.14911963      -0.16789365       0.28188692       0.99899505       2.22078889       0.85960330
C      -18.61337606       9.85778600       8.27191416      -0.94259561       1.49366865       0.68352903      -2.23566777       3.03586921      -0.41543736
C      -18.86096600       8.72175807       7.51974908      -1.05996814      -0.69645727       2.30946661      -0.42112202      -2.46278257       0.17578576
C      -18.60492580       9.81873411       9.68096622       0.37037761       1.02463059      -1.05396741       0.23454944       0.29322312       0.26438787
N      -18.77149189      11.06084880       7.73327123      -0.51556111      -0.41417969       0.21619119       1.08100910      -1.13329659      -1.12298679
C      -19.26430970      28.20193482      21.54531376      -0.68771253       0.54658993      -0.87365557      -0.07229327       0.00564641      -0.21007259
N      -19.29429007       8.77490895       6.15665622      -1.02864512      -0.48544587      -0.41476073      -1.06062858       3.77273582      -0.07110748
C      -19.44974899      28.19227550      22.97892656       0.08846360       1.17991369       0.28600997      -0.56193789      -1.24223241      -1.66449032
N      -19.60528048      27.15823661      20.83995828       0.56997308       0.54506654       0.45257568      -1.13113219      -3.82556305       3.40968433
C      -19.20590738       8.66854702      10.27787565      -0.91961976      -0.29049052       0.91163877       1.56420966       1.29824830       3.02029619
N      -20.22657727      27.17755869      23.69572087       0.08802332      -0.25333033       1.13726065      -0.84728302       1.40959652      -0.62130960
N      -19.33481179       8.69554957      11.58143778       0.71902804      -0.26212917       0.71556083       0.00758891      -0.25010291      -0.78052865
N      -18.40981353      11.06036394      10.40565241       0.38449082      -0.25452625       0.77224897       0.95042830       0.49026757      -1.47515536
O      -19.75534680       9.85584944       5.72060527       0.17059693      -0.25283128       1.10241366       0.81076347      -0.34377615       0.49357130
O      -19.32844970       7.82286866       5.45112184      -0.53370096       1.10806680      -0.82603674       0.62608664      -2.54630450      -1.30376230
O      -20.78835014      27.56522924      -0.80268591      -0.31063602      -1.97418819      -0.34731482       0.29326546      -2.50827102      -1.12120710
O      -20.44287619      26.07817292      23.16831134       0.70283455       0.30757147       2.50100637       0.44265136       0.57265057       0.61060534
O      -18.56896214      11.08310442      11.60232839      -0.86906723       0.30288031       1.27307253      -0.14156137       0.22802776       0.90371219
O      -17.98009020      12.11235006       9.81220506       0.52247185      -0.70632717       0.29280845      -0.59518711      -1.88613010       1.13425204
H      -18.41556133      11.82142215       8.29370317       0.13617888       0.25738068       0.18360886      -0.15942472       0.22438406      -0.35286539
H      -18.87646151      11.02893483       6.72252629       0.06812320       0.02050065      -0.06554309      -0.06242477       0.60098311       0.35473693
H      -19.87594394      26.30304925      21.48185415       0.15227954      -0.22207113      -0.05854030       0.52411315       2.11531788      -1.69500507
H      -19.59804304      27.05394206      19.85576308      -0.01158729       0.21719744       0.21825752       0.33523008       0.42183198      -0.66941453
H      -19.13998167       9.58865692      11.94757973       0.19438624      -0.13968941      -0.07596131       0.23777870       0.98698837       1.34626043
H      -19.77924698       7.90572480     -13.52463321       0.09372803       0.11841819      -0.17499611      -0.15812355       0.23494203       0.27961418
C      -16.04084556       6.65526297      11.13790911       1.12148761       0.28450130      -0.56532351       0.49425046       4.19835015       0.98077510
C      -15.67849536       8.03708465      10.83613022       0.14513421       0.39618416      -0.07582127      -0.29016700      -0.64645623       1.08229685
C      -16.25759852       5.82342975      10.05722499      -0.20646279       0.50500796      -0.23666794       1.25925783      -2.35988767      -0.15770300
N      -16.18321624       6.33878889      12.38850640      -0.46997842      -0.01008484      -0.11343543      -0.36445798      -2.05400085      -0.79087335
C      -14.97669632       8.34319261       9.64344489       0.80800062       0.82779345      -0.04468099      -0.57989168      -0.13217889      -0.95566060
N      -15.75842531       8.96610391      11.95558169       0.85176976       0.26459912      -1.06013654       1.35781747       1.44308097       0.39620091
C      -15.13320306       7.38209496       8.47015880      -0.09178942       0.98838373      -1.37046941      -0.26237822       2.40212573       3.10279904
N      -14.32712203       9.46310221       9.48200459      -0.76570086      -0.66387837       1.15248604       1.93261269       2.63396845      -2.47060865
C      -15.85237526       6.20765015       8.71809018      -0.05783015      -0.08949572       0.22880964      -1.58793893      -0.50593635      -0.96388065
N      -15.00819548       7.97145123       7.19877446       1.67255260      -0.60533453      -0.93472058       0.49006582      -2.02152016      -2.11635455
N      -16.32373645       5.50622250       7.69473617       0.28531830      -0.25990134       0.39191231      -0.00406589      -1.51912279       1.04159097
N      -16.29051019       4.39146301      10.35789276      -0.63148241       0.80992287      -0.06509630      -0.69140124       0.47442341       0.20684431
O      -15.22580131      10.08212382      11.75614787      -1.05567724       1.31255445      -0.16091273      -0.86245187      -0.73883514       0.26971947
O      -16.26505310       8.71047703      13.05718287       1.53276882       0.67096880      -0.06451913       0.30221352       0.09132161      -1.78487834
O      -14.11493712       8.75132857       6.93859631      -1.28233552      -0.75525634       0.68024090       1.14510286       1.45986998       0.98968942
O      -15.68973979       7.56564790       6.24720586       1.22329099       1.87349652      -0.24096906      -0.94427989      -0.32894366       0.40569330
O      -16.42489184       3.99436421      11.52875373      -1.74405407      -0.15866584      -0.07097374       0.35448428       0.05753635      -1.11409926
O      -16.21743751       3.61936724       9.43050446      -0.78318496       0.23877065       0.41692349       0.16154084      -0.74121033      -0.47251224
H      -16.44466445       5.38668272      12.37482254       0.22148034      -0.19309040      -0.11726862      -0.43623947      -1.51542772       1.21936731
H      -16.14214880       6.83297808      13.24433623      -0.10000088       0.37515805      -0.09892262       0.12798103       1.41339132      -0.01626430
H      -13.85502303       9.66160255       8.49680219       0.01555413       0.00792284       0.15989443      -1.69790741      -0.84771356       2.81758417
H      -14.41289120      10.28320419      10.15916457      -0.41770907       0.03043725       0.32055447      -0.04574689      -2.24630343      -0.81270234
H      -16.63526530       4.54608878       7.82494861      -0.06080826       0.03369166      -0.11011323       0.04087206       0.61354978       0.32751591
H      -16.18903093       5.82053399       6.77840371       0.03776200       0.42084848       0.12910659       0.33798376       0.79164497      -1.26294332
C       -7.72373244      11.00746708       9.12041340      -1.03556461       0.09713889       0.17350057       2.38092591       2.62993889      -1.07172799
C       -8.85679255      10.47585188       8.53433461      -0.70876578      -0.49749410      -0.19397591      -3.65043267      -1.53432130      -0.38601295
C       -7.57531226      10.80193313      10.50020031      -0.54638034      -0.61190992      -0.17145897       0.64988612      -0.09475084       0.26346610
N       -6.81372228      11.77725758       8.36261849      -0.68202476      -0.19718037      -1.18483054      -2.29705630      -3.84128040       2.65340228
C       -9.75211556      30.20373722      22.58788146       0.35970999       1.18292701       1.30794120       3.85121054       0.32210021       0.05863719
N       -9.46068360      11.15696530       7.37807263       0.76149901      -0.79342131       0.75300601       0.35484458      -0.59119776       1.13510469
C       -9.35966046      29.71863830      23.90583638      -1.25853198      -0.24993080      -0.42801748       0.06830949       2.65181929      -1.24204017
N      -10.61098458      29.57291367      21.86046260      -1.05458256      -0.29615226       0.59857612      -1.35747384      -0.24285696      -0.92748543
C       -8.35295799       9.81578192      11.19740710       0.72414731       0.34319746      -0.66804842       1.79579736      -1.31372809       1.74282017
N      -10.10963641      28.66977617      24.48417398       0.08858403       0.72374327       0.63713957       0.76954398      -2.72402738       1.47759200
N       -7.94368282       9.48066891      12.46158784      -0.67157832       0.26956325       1.15113657      -2.78685369      -1.45860754      -3.21419229
N       -6.42839058      11.52547306      11.15374182       1.11810592      -0.34977786      -0.54260992      -1.02384452      -0.52406957      -0.51900505
O      -10.45986232      10.75789674       6.78558850       0.45920054      -0.21678982       0.06330313       0.37481356      -0.21119645       0.09263781
O       -8.93813347      12.21361322       7.09768967       0.62361890      -1.13776902      -0.02351922       0.00130674       1.24525936      -1.20914146
O      -11.24496350      28.40297618      -1.47934061       0.92428985       0.16592454      -0.49428542       0.77574035       0.58802118       0.48583494
O       -9.56481997      27.89925124      25.35793146      -0.71078672       0.59490108      -0.40478263      -0.87886917       2.49449261      -1.73931793
O       -5.58807458      12.07666080      10.47211790      -0.71694843      -0.60020323       0.09825089       0.38123799      -0.07641526      -0.18811920
O       -6.38694670      11.58292836      12.35111565      -0.32286840       0.82667117      -1.51494742      -0.66853674      -0.29990756       1.30279226
H       -6.29262013      12.38715803       8.91143775      -0.29587897      -0.29847384      -0.12596306       1.08723005       1.06912776       0.31279905
H       -7.18646073      11.97533605       7.49913566       0.43292654      -0.03925721      -0.24159874      -0.32913151       0.92512672      -2.01107735
H      -11.35645199      29.15205299      22.33676646       0.23130157      -0.15845730       0.10475232      -0.84396804      -1.05207025       0.57316198
H      -10.76084070      29.84084197      20.90583756       0.22766647      -0.25743703      -0.06710639      -0.02879463       0.31555115      -0.18191913
H       -7.48852973      10.13348781      12.97065794      -0.04657216       0.34362994       0.08308419       1.97347275       1.88621513       1.78471732
H       -8.15417946       8.57097936     -12.74804183       0.05520959      -0.11528293       0.32110916      -0.49711861      -0.46140487       0.39670799
C       -0.31709682      12.67844266       4.97148859       0.70958523       0.38263006      -0.02360451       0.61018187      -0.74617266      -0.13221363
C       -1.11797246      12.65506443       6.17184362      -0.47299929      -0.76584917       0.28124606       1.08499765       0.56448814       0.24002781
C       -0.91325003      13.20209921       3.80780787       1.34050776       0.92881545      -1.17697670      -1.94594091       1.09174790       1.58215744
N        0.94314970      12.13152089       4.94032524      -1.27908971      -0.09300908      -0.05878735      -1.01889123       0.29575085      -1.48941469
C       -2.30855244      13.38847815       6.28584594      -0.46381805      -0.82359942       0.00015181      -1.54102711      -1.20512004       0.88858970
N       -0.69540552      11.86524158       7.28166280      -1.06143676       0.45340178      -0.24363212       3.11140775      -1.53418580      -2.50867705
C       -3.00320741      13.66802038       5.11693251      -0.72214809       1.13963112       0.33550885       1.65669486       1.80106255      -5.26780089
N       -2.93758332      13.58254104       7.45281554      -0.24988044       0.30327053      -0.51616002       1.39921412      -0.16663477       1.79520920
C       -2.25703004      13.74711978       3.80603615       1.56955658       0.71785521       0.02210077       0.82425738      -0.97408981      -0.21533331
N       -4.26687087      14.26057760       5.07523868       0.56309547      -1.51301917       0.18942789      -0.49244110      -0.54282243       0.04440552
N       -2.72545726      14.24485907       2.62219625       0.72139199      -0.26771564      -0.38103881      -3.21994623       0.63123432       4.32028223
N       -0.22081999      13.11931372       2.57670752      -0.27945125       0.63057786       1.37819724      -3.09233238      -2.42249077      -0.70206519
O       -1.41434903      11.51556388       8.16789040       0.10614553      -0.48564758       0.67737374      -1.09996220       0.27059503       1.51375210
O        0.46134062      11.34249201       7.13481552       0.72369710       0.44260024      -1.00924176      -1.60817748       0.82224179       1.95734277
O       -4.96084135      14.09682156       6.04041561      -1.29981275       0.30309963      -0.36931979      -1.63557485      -0.14363509       2.57075929
O       -4.75846805      14.80555682       4.09867250       1.82759452      -0.88730783      -0.43156084       0.58688215       0.59555762      -1.39877674
O        0.92480698      13.40503162       2.52694249       0.29110905      -2.10207885      -0.58977159       3.02742064       0.87634610      -0.40895413
O       -0.84403790      12.58163870       1.64676566       0.33283742       0.00805177       1.51112233       0.54762180       1.18113214       0.21191219
H        1.35319435      11.90042282       4.04501648      -0.25166726      -0.11412779      -0.12821828      -0.26356129       0.46331591       0.28799840
H        1.09008050      11.44377045       5.65317778      -0.29575747      -0.43566256       0.03397880       0.28785808      -0.05713174       0.44795994
H       -3.82291694      14.03532361       7.47884397       0.30036636       0.09988069       0.18239019      -0.32929515       0.28060980      -0.32880831
H       -2.44485290      13.51466863       8.34660034      -0.22290731      -0.05033977       0.08257820      -0.21306293      -0.29578259      -1.02650401
H       -2.26028546      14.14356469       1.78512639      -0.39511903       0.32111735       0.02466847       1.01489115      -0.33997892      -1.62704048
H       -3.70279773      14.66605568       2.71385691       0.25908641       0.04026913      -0.09831844       2.04221820      -0.79490205      -0.40478382
C      -28.38637506      36.46707057      35.26436983      -0.87369458       0.36151475       0.91576110      -2.72626927      -1.67492824      -0.30601396
C      -27.95261393      35.10895105      35.13058733       0.32336507      -0.49420869       0.44928728       1.43108032      -2.09515117      -0.33342718
C      -28.04653509      37.17753977      36.42565315      -0.43932079      -0.61038411      -0.57910897       2.08736894      -1.33492859      -1.69653065
N      -29.34862764      36.86366966      34.43203712      -1.42767915      -2.35692621       0.42524893      -0.54952180       1.91146043       0.59180229
C      -26.78626827      34.53731548      35.85423753       1.85550239       0.20862408       0.67829403      -1.88421266      -0.22575210      -1.10551632
N      -28.69456021      34.17077432      34.25026121      -1.03246316       0.35260497       0.58447572       0.14404030       0.31027570       0.38196121
C      -26.13917212      35.51090927      36.61527423       0.33318302       0.13067041      -0.19571399      -0.38963754      -0.69077500       1.11161042
N      -26.41514229      33.24275807      35.85424839      -0.68966961      -0.08552748       0.32480223      -1.14419328       0.50289760      -1.32247877
C      -26.82304970      36.72220780      36.99088572       0.09218826      -0.38755711      -1.07641123       1.17245245       0.62975157       1.15462355
N      -24.96899789      35.02513261      37.38112653      -0.82311165      -2.31073572      -1.08735540       1.28028399       1.39792645      -0.17919382
N      -26.27311287      37.48739565      37.91308786      -0.93699859       0.07348772      -0.61266046       1.29431866      -0.87101242       2.23743621
N      -28.52134122      38.46453243      36.61373002       0.83757558      -0.32241730      -1.10227199      -1.18978070       0.16310957       0.43586531
O      -29.94346921      34.29840888      34.21160299      -0.01611252       1.32080478      -1.95100368       2.27906498      -0.86912747      -0.22678406
O      -28.04567557      33.30288308      33.62487843       0.52798974      -0.95383650      -0.86069669      -1.42229593       1.32242360       1.13850460
O      -24.86226469      33.88630397      12.27788815       1.43739090       1.11377111      -0.07125471      -0.64710601       0.55127656      -0.18143456
O      -24.04586642      35.83867709      37.48576672       0.67230447       0.26402080      -1.28627545      -0.78740189      -0.36400262       0.25002749
O      -28.11985604      39.09071809      37.59273569      -0.72327981       0.50461938       0.40030587      -0.74262765       0.88259699      -0.28778462
O      -29.42195913      38.87857675      35.86313408       0.34828828      -0.25505508       1.33071784       0.76762306       0.66629860       0.90842787
H      -29.94213461      37.72752627      34.65619995       0.01236154      -0.23877203      -0.45410323       1.63239525      -1.94638429      -0.58442229
H      -29.66400856      36.14821111      33.82355148      -0.13430684       0.07778662       0.41997049      -0.62717601       0.19001180      -0.76396625
H      -25.61453814      32.92152153      36.33891921       0.20219109      -0.01100900      -0.22403149       0.51479799       0.07679059       0.70237237
H      -26.88392079      32.51191767      35.32760516       0.14498665      -0.31848016       0.28487585      -0.08041009       0.77062713      -0.07643439
H      -26.73235549      38.35990911      38.16522367       0.31523725       0.15099534       0.08514740       0.20192706      -0.40828850      -0.08444482
H      -25.68228962      37.03193889      13.08501940      -0.13735560      -0.17798676      -0.05740899      -0.24370165       0.82920275      -1.11471629
C      -27.33342273      27.67693793      32.32796174       0.97427443      -1.49703150      -1.03098571       1.25652527      -0.29434602       1.99985787
C      -26.57500509      28.71990106      32.88712845       0.10531944       0.66555961      -0.27625286       0.50437478       0.57192289      -1.72729706
C      -27.04505146      27.07199731      31.11174996      -1.29092433      -0.47314252      -1.48080345      -0.06472670      -1.31393383      -2.92041997
N      -28.12232228      27.02449230      33.12514018       0.56324687      -0.60214719       0.44997332      -3.08791886      -1.27306221       1.18899687
C      -25.57973576      29.34031780      32.06462209       1.25983799       1.01188077       0.32046595      -0.35774938      -0.97177518      -0.12507718
N      -26.67294207      29.06007385      34.24188115       1.26519887      -0.26931614      -0.51109257       1.88748924       1.24126546       1.65699990
C      -25.26590783      28.62338309      30.85981149       0.27053111       1.43740201       0.03708853      -0.58994930       1.97618541      -1.51969989
N      -24.96981559      30.43065065      32.48087159      -0.73490253       0.05051668       0.97992921       2.38134771      -0.02060730      -3.11717803
C      -25.94589331      27.49923322      30.34262575       1.36050802      -0.53345718      -0.51234911       0.85419584      -1.00572279      -0.12224329
N      -24.55535095      29.45996298      29.80719428      -0.46550743       0.44364977       0.34041635       1.91594594      -1.04941637       2.67553432
N      -25.41342451      26.79224689      29.30655422       0.99873730       0.32450770      -0.58984894       0.45236976       2.37771224       0.99793748
N      -27.84128317      25.98037982      30.51613537      -0.11116442      -0.91466328       0.48866245      -0.83673003       0.29464273      -0.72556092
O      -26.30038021      30.23036335      34.61926464      -1.28408654       0.79872853      -0.61973467      -1.16951443      -1.67795852      -0.60452472
O      -26.89077829      28.19010389      35.07033676       1.62071246      -0.78976889       0.64116478      -0.70472623       0.59822637      -0.01131882
O      -25.00385595      29.75745984      28.74623897       1.30992914       1.11760899       1.55724210      -0.73603171      -0.24692880      -0.45875916
O      -23.41194968      29.75508363      30.19659629      -0.49885917      -0.59373266      -0.71450270      -0.20555936       0.53072836      -0.55078207
O      -29.02798927      25.81945848      30.84662425       1.34852063       0.20808580      -0.45140525       0.77157222       0.34574364       0.84076288
O      -27.40544291      25.31422170      29.57000076      -0.28692287       0.31612118      -1.06659872      -0.00175691       0.49553673       1.11112813
H      -28.80130708      26.48584561      32.61268948       0.04369871       0.61127104      -0.19778427      -0.29579477      -0.36740668       0.52470211
H      -28.31050544      27.26826319      34.09799011       0.44836062       0.17106732       0.12043280       0.31011703       0.04792930      -0.89065966
H      -24.07979191      30.70349871      31.98981875       0.09378589       0.00698873       0.30647418      -1.69675745      -0.19950552       0.78540030