1296
Lattice="-43.2929154667034 22.913708314646104 16.147822509847828 0.0 16.2225233023307 13.395593631352707 0.0 0.0 -26.385669163614036" Properties=species:S:1:pos:R:3:momenta:R:3:forces:R:3 energy=-1487793.8439841291 free_energy=-1487793.8439841291 stress="0.00545788937920158 -0.0006242954070677882 0.0019475138795840483 -0.0006242954070677882 0.005318897574190835 0.0009563892874510894 0.0019475138795840483 0.0009563892874510894 0.003991625589213371" pbc="T T T"
C      -42.90226006      27.84849449       8.44333053      -0.41508187       0.47033968      -1.13616277       0.87834118       1.41040025      -0.47656294
C      -42.40484960      26.91230565       9.40573366      -0.61639701      -0.53147803      -1.37324126      -0.90426049      -0.20411271       1.07395921
C      -42.97197662      27.36642812       7.08966348       0.56421014      -0.67346929      -0.54442193       0.03523568      -0.17644572      -0.01500178
N      -43.14467559      29.16982751       8.71178340      -0.97528310       0.46454066      -0.25449628      -0.12038366      -3.13602217      -0.99573737
C      -42.15780431      41.77692634      22.49306310      -0.26782147       0.05467069       0.05655877       0.36649127       0.21328585       2.22164100
N      -42.30809452      27.30935220      10.83010169      -0.17408525       0.40734109       1.72629015       0.08730810       2.20130071       0.40276572
C      -42.53607744      41.30756037      21.26120191       0.22009903      -1.32955923       0.52609320      -0.04407945      -0.51301806      -1.96631537
N      -41.43118913      41.00475408      23.40819743      -1.07658394      -1.05479171       1.35626174      -0.53745202      -0.41778932      -0.98187832
C      -42.86787401      25.97392927       6.81285260      -0.05168488       0.21694070       0.44396661      -0.66890836      -0.36049565      -2.02719058
N      -42.40247143      39.88044060      20.94697425      -0.26349196      -1.56313815       0.40848487       1.59210181       0.37884821       0.76127907
N      -43.12698342      25.47122124       5.57920798       0.90216155       0.20026117       0.31402545       0.86343137      -2.53220036      -0.85501130
N      -43.05287457      28.29046382       5.95199945       0.60597410       0.62404862       1.20051116      -1.27216398      -1.78823626      -1.87919069
O      -42.40283556      26.57155928      11.81491690       1.40792760       0.46196812       0.23440267       0.08459689      -0.24095436      -1.61681871
O      -42.16938654      28.54417837      11.00154498       1.10037367      -0.47742963      -0.92559099       0.07306714      -1.57101353       0.00466241
O      -42.10181203      39.44606792      -6.53380797      -1.49176922      -1.05234737       1.49589807      -0.57068942       0.48728044      -0.38972031
O      -42.39842551      39.15253971      21.92560835      -0.27800204       1.47020702       1.03517952      -0.79406704      -1.12131170       0.36762659
O      -42.77888610      29.45844237       6.06259123       1.73608095      -0.23196701       2.88928192       0.52843057       0.64012328       0.63379452
O      -43.43159447      27.83350441       4.83140184       0.98688202      -0.58639846      -0.42239028       0.62533638       0.91166024       1.83286726
H      -43.30165544      29.73264336       7.91200622       0.16370917       0.12179664       0.04685323      -0.00453392       0.69124214      -0.30597562
H      -42.67327428      29.46859578       9.51355459      -0.16192659       0.36980602      -0.13914483       0.24966152       1.00836898       1.18057172
H      -41.19132862      40.11778938      22.92786993       0.22515820       0.03438241       0.26592705      -0.37158683       0.71267578       1.43942068
H      -41.82129226      40.94642804      24.35975061       0.06475436      -0.13980072      -0.07207722       0.46699425       0.21389466      -0.90198843
H      -43.32736838      26.03275930       4.78394790       0.04276494      -0.24318303       0.09152703      -0.24511817       1.17095731       0.37393209
H      -42.83900882      24.50824018     -21.16419928       0.08491823      -0.31773930       0.13856033      -0.34747620       1.82822907       1.97985683
C      -39.59672848      21.86906441      13.10776192      -0.20708887      -0.75659560       1.10300617       2.32278637      -1.93015666      -1.12455670
C      -38.59716449      20.96622683      12.40973923      -0.91493818       0.94606326      -0.93819196      -2.01932054       0.51420636       1.53477416
C      -39.17221377      22.24972690      14.37150211      -0.16993931      -0.04533199       0.52472402      -1.84012941       0.80327618      -0.10462832
N      -40.81081715      22.08601296      12.53811793      -0.00548241      -1.17390159      -0.30181866      -0.01880222       0.95179269      -1.20019756
C      -37.82564893      20.00737027      13.20487036       0.17327913       0.63204760      -0.66018180      -1.99557294       1.03369189      -3.79664092
N      -38.80894005      20.87906932      11.04003092       0.63513599       0.68982875      -0.29619308       0.38807261      -3.75570909      -4.28523554
C      -37.58754547      20.43112874      14.48204702      -0.41973625       0.90512381       0.94520536       1.74207000       1.32259823       2.48814674
N      -37.41994022      18.85460314      12.67539477      -1.20971425       1.04269631      -0.87557209       0.14685144      -0.27552701      -0.74441650
C      -38.12685057      21.61255279      15.07772967       0.68202122      -0.91517946      -0.22641221       0.21802050      -0.75846406       0.42633680
N      -36.73535650      19.62389103      15.33028747       0.65448417      -0.07241961       1.44906676      -1.49683773       1.58030432       0.98041048
N      -37.85939485      22.00817372      16.33995384       0.03327519       0.33906145      -0.94490624      -4.68094941       1.08960171      -2.94035189
N      -40.07087086      23.29918154      14.93830322       0.44471760      -1.20852650       1.00133122       2.38845978      -1.26835850       1.13069081
O      -39.16150001      21.85661522      10.37999379      -0.27465071      -1.93241810      -0.68779707      -0.09384032      -0.57371743       1.01748458
O      -38.63007500      19.72773093      10.36355888      -0.38477840       0.37999282       0.59803048      -0.10291549       3.34870073       2.95884339
O      -36.22401005      20.06768278      16.34003777      -1.23492225      -0.58083796      -0.54851037       0.61445237       0.48006117      -0.22123594
O      -36.75904828      18.45047000      15.08916047       1.32031562      -1.24864474      -0.06060722       0.77673491      -2.79970553      -0.32302426
O      -40.33833209      24.19357026      14.17140290      -0.47644592       1.02687926      -0.17056696      -1.00463998       0.94727981      -0.00095786
O      -40.36729638      23.24522441      16.12594105      -0.82362022       0.58510591       0.50844388      -0.18264355       0.35767490      -0.57769220
H      -41.48186909      22.74430940      12.95118648       0.23646878       0.06467613       0.01988582       0.92266422      -0.51166645      -0.01774163
H      -40.78942200      22.16801815      11.49995409       0.05326091      -0.06883108       0.09819222      -0.01932118      -0.31212310       1.32248848
H      -36.78032996      18.40416292      13.31822105      -0.36866465       0.04918287      -0.11275022      -0.24622264      -0.86111107      -0.72129632
H      -37.74497736      18.49901211      11.73444337      -0.50044401       0.30393963      -0.38191478       0.64683257       1.18430898       1.60843385
H      -38.73301582      22.33020231      16.73292291      -0.15485233      -0.00140613      -0.01598378       0.52986910       0.79930449       0.70418457
H      -37.11649588      21.86731473      16.88948377      -0.37375216      -0.22305660      -0.01643727       3.02652579      -1.35814871       1.73037927
C      -21.02551971      13.07176239       3.26682706      -1.27647664       0.20083510      -0.96307040      -1.10491242       0.33187308      -0.56876588
C      -22.36102617      13.06127166       3.84777173       0.92137005      -0.67124340       1.02377256      -0.12076851       2.07962000      -0.55144785
C      -20.48482946      11.77557844       3.02064737       1.48503951      -0.42288357      -1.28896559       1.98961181       1.13894401      -1.47630116
N      -20.47498623      14.21613086       2.84109392       1.84438051      -0.38088918      -0.30553795       2.57013881      -2.24778993       0.28130084
C      -23.12693476      28.15261784      17.65564556      -0.90085637      -0.37419737      -0.15393223       2.89947781      -1.25968315       0.01976878
N      -23.07997338      14.29651534       3.71514166      -0.02469790      -0.10052069       0.90675098       0.56699667       1.78058016      -1.48492890
C      -22.30591987      26.97466133      17.64015825       0.47042846      -0.40785961       0.57579537      -1.76804333      -2.16399456      -0.34022809
N      -24.36358906      28.17996307      18.05376357      -0.11036266       0.70302368      -0.39637953      -1.09194295      -0.64650126       0.71977002
C      -21.13743407      10.57535895       3.45221505       0.35420679      -0.77454599       0.68464524       0.22983232       1.31275682       0.44250940
N      -23.00438100      25.75064137      18.06941729       0.14056007       0.67044895       0.75151144      -0.59128726       0.50332007       1.55273616
N      -20.61528907       9.39700479       3.20069438       0.14898363      -1.04707608       0.48957750      -0.60798235      -1.41934467      -0.62924566
N      -19.28405087      11.71628325       2.04936763      -0.09065085      -0.53382768      -1.11166648       0.93721591       0.51823906       0.05248572
O      -22.59201316      15.35093221       3.25738822       0.05933547       0.08911865       1.03709202       0.26650090      -0.97262583       0.72115992
O      -24.26170898      14.31682056       3.95822819      -0.75089587       0.17095928       1.55137865      -1.70073957       0.09405053       0.84836484
O      -23.96948626      25.88352832      -7.53911094       0.99794102      -1.78212108      -0.87170416       0.62077181      -0.00086094      -0.45329953
O      -22.64168280      24.61564000      17.79568639      -1.55101757       0.69343636      -0.13441927       0.61023655      -0.07058793      -0.70754244
O      -18.55429962      12.65551997       1.68073291       0.17244304      -0.51375895      -1.53249103      -2.10384374       0.18209086       1.82011603
O      -18.96715315      10.62120373       1.59981764       1.06948929       1.93641354       1.17121730      -0.82260560      -1.42340127       0.13389543
H      -19.52120385      14.21055531       2.47777707       0.15191462       0.02373276      -0.21368842      -0.53892153      -0.75638534      -0.02728944
H      -20.86681679      15.10751737       2.86612532       0.08459022       0.08643621       0.18009333      -1.40619062       0.79601934       0.43654669
H      -24.95009921      27.40313956      18.40351883       0.06349782      -0.08841538       0.06341387       1.41607445       0.62754304      -0.59558119
H      -24.72637930      29.09112554      17.95671486      -0.14901538       0.12075194      -0.07076921      -1.08703627       0.86626230       0.01447570
H      -19.81758527       9.42071067       2.58183603       0.34300751      -0.10393436      -0.12378938       0.01880607      -0.21290021      -0.06100933
H      -21.24595928       8.56652993     -23.16832835       0.37365916      -0.17089036       0.10939687       1.03537730       1.20144523       0.46656993
C      -12.16431778      11.46652517       1.79708853      -1.89394771      -0.35266546      -0.00769142       0.23801125      -1.47701481      -2.00507539
C      -12.96398853      10.19293323       1.82138572      -0.55999086      -0.47708323      -0.34020506      -0.53541470       2.82983260       0.86611888
C      -12.33393822      12.44543252       2.79263361      -1.43087144      -0.06955374      -1.10366741      -1.72206186      -0.60437594       0.70665053
N      -11.32585135      11.68840467       0.77728833       0.10813115      -0.02523714      -0.68915974       1.37408885       0.43804676       0.24000866
C      -14.22360669      10.25245695       2.47893994      -0.11200355      -0.77580306      -0.65013919       0.77333807      -3.10038288       1.37813099
N      -12.83293345       9.13023588       0.90946065       0.65782748      -0.18772458      -0.81632831       2.27685842       1.90879756      -2.94844183
C      -14.58539699      11.46864992       3.13442186       0.16308424      -1.58258854      -0.49933231      -1.53542924      -1.87808179      -0.61704581
N      -14.95185165       9.09243986       2.66549662       0.73197967       0.38083862       0.29175522       0.38372346       3.03212280      -0.13119749
C      -13.68196483      12.46322012       3.41916490       0.51172309       0.88960534       0.77146775       2.16689394       1.38746876      -1.57775375
N      -15.98174148      11.58955984       3.54286046      -0.70876489      -1.53220151       1.10831820       2.70262022       1.52356137       0.00364060
N      -14.04131117      13.56036041       4.01677060       0.82448760       0.04204882      -0.42696904       2.12064185       3.04879712       2.26270415
N      -11.39808905      13.53749337       3.02389957      -0.56153991       0.65915089       1.45328459      -0.16970719      -1.45892101       0.21102549
O      -12.22907729       9.43909258      -0.21164184       0.92386979       0.55980802       0.57382880      -1.43414842      -1.79928824       2.69754896
O      -13.29450444       8.04872633       1.17098324      -0.80593184      -0.59787516       2.02350936       0.66956677      -0.40783733      -0.95573466
O      -16.62806251      10.61501719       3.73793868       0.71499879       0.37703654      -1.32790753      -2.05751190      -2.39794763       0.52975581
O      -16.42645782      12.69788772       3.70602144      -0.65395303      -1.52365243      -0.70412292      -0.75818840       1.66382933       0.18158256
O      -11.40882664      14.06435507       4.11899240      -1.30756443      -0.81947172       1.15403123      -0.55373223       0.56001486       0.44875146
O      -10.54789100      13.82521270       2.19350447       1.23370246      -0.45572371       0.76606088       0.10848528      -0.11683156      -0.71726323
H      -10.69591089      12.49986806       0.83578317      -0.19273157      -0.04626420      -0.21529338      -0.68176803      -0.49000294       0.21118925
H      -11.02477569      10.97107416       0.13389550      -0.06180949      -0.06918954      -0.02189804      -0.68086840      -0.16937015       0.35635351
H      -15.80785083       9.31554209       3.12238858       0.00228528       0.24398828      -0.52356615      -0.61432270      -0.75856565       0.27391609
H      -14.66588781       8.18800989       2.36632308       0.12678454      -0.18544944      -0.11723053       0.24589661       0.03222351      -0.39763946
H      -13.26281141      14.20574527       4.39815668       0.09051455       0.06835769      -0.02854256      -1.78115847      -1.61609065      -1.04819640
H      -14.98124732      13.72270349       4.29079339       0.23683711      -0.30905696      -0.08936245      -0.41754099      -0.08632444       0.25265213
C       -1.45402423      11.84100443      -4.34108526      -0.32785316      -0.64486739       1.22786358       0.01638880      -0.00895486      -0.87944741
C       -0.16593364      12.42873333      -4.28364426       0.92661765      -0.90358569       0.95691812       0.69513557       1.24468083      -0.03008711
C       -2.16113516      11.57998084      -3.14796194      -0.23233647      -1.07053841      -1.46003518      -0.88456274       0.37544345       1.97952054
N       -1.89487395      11.49106977      -5.53653666      -0.37672660      -1.68761380       0.29564641      -0.49354124      -0.97371687       0.52221494
C        0.28268416      29.22719468      10.30718260       0.78817092      -0.55520308       0.85881368      -3.18629749      -0.68410114       2.05120287
N        0.66268588      12.65303064      -5.43966814      -0.14210130      -0.40637978       1.04271728       0.11408049      -1.51081657      -2.97128818
C       -0.74196124      29.29523382      11.43627776       0.17919263       0.35162012      -1.33371899       1.49328856       0.40430221      -0.46705835
N        1.49092142      29.60056368      10.50550945       0.91735871      -0.29760306      -1.53337509       3.24795754       2.42989879       2.99315235
C       -1.88705354      12.27219647      -1.90832290       1.70244665      -0.39460532       1.51895773      -0.07169025      -1.64142078      -0.30508892
N       -0.37725027      30.03097279      12.61276628       0.32106682      -0.77672679      -0.57752473       0.82849921      -0.05158490       0.84292911
N       -2.65670712      12.03147288      -0.82641032      -2.57493961      -0.54787271      -0.57258435      -0.44828555      -0.27281591      -0.90056475
N       -3.21747149      10.63412950      -3.08838716      -0.07952248       0.52414270       0.90171884      -0.57097873      -1.12166265      -3.38274328
O        1.88320957      12.76258117      -5.39572977       0.54993832       0.57741581      -0.03344732      -0.10873178       0.47865054       1.56003002
O        0.17080424      12.58601378      -6.60338594      -0.23644315       0.57751248       0.33279684      -0.44929056       0.21629881       1.64900965
O       -0.78428124      29.71280265     -12.65363304       0.94380792      -0.38203453      -0.24274011      -0.37757464      -0.12489325      -0.68090276
O        0.41919129      30.95442738      12.47889305      -0.13571678       1.12374996       0.26288141       0.02171340       0.22657971      -0.11460630
O       -3.61625408      10.06370789      -2.09580594       1.10377853      -1.20227491      -0.37144697       0.01779232       0.21524122       1.15493149
O       -3.71973528      10.28606511      -4.19199156      -0.18256767       1.41074939       0.11794740       0.23317363       0.42575975       0.49189325
H       -2.69952633      10.86262567      -5.47386556      -0.32441918      -0.14827836      -0.24083428       0.28970990       0.16325538      -0.55098898
H       -1.13877793      11.48260691      -6.20492783       0.13241639      -0.23784932       0.23960784      -0.63545504      -0.04138043      -0.80305185
H        1.77266254      30.11984925      11.41370616       0.44874022       0.31557915      -0.12261071      -1.09091627      -1.12555924      -2.20749016
H        2.21084483      29.53706076       9.80577474       0.20260258      -0.22665830       0.05162525      -0.31473823      -0.19306875      -0.31105846
H       -3.39697927      11.30814742      -0.82605587       0.05460599      -0.12336098       0.29740481       1.10209292       0.85167191      -0.42365337
H       -2.34212801      12.32752196     -26.33000135       0.17310235      -0.02655168      -0.05483853       0.58526736       0.72888026       0.78175535
C       -2.46349258      11.39469026       3.10804291       0.04186427       0.46405304       0.37273707       1.11057227       0.58264576       0.04449082
C       -3.07498857      12.53892279       3.70602348      -0.02516730       0.16728468      -1.95281078      -0.93841249       0.87811617      -1.07348711
C       -3.31379879      10.40076793       2.68170949      -0.40986599      -0.53358365      -0.63398625      -2.35505973      -1.61997459      -0.46959948
N       -1.16028053      11.21219658       2.86078154      -1.15703920       1.42593633       0.10439001       0.50304739       2.52273255       2.29620516
C       -4.47571826      12.81814828       3.50894348      -1.14100804       0.57087682      -0.58269843       2.14358018      -1.03454573       0.75330720
N       -2.14490711      13.49536185       4.25579986      -0.35710062      -0.14196246       0.44338024      -0.92793902      -0.48500879      -0.70555582
C       -5.28052191      11.70242827       3.20069562       1.36991417      -0.53654032       0.47717240      -1.62841397       0.28401000       0.32996698
N       -4.92000063      14.06191240       3.69439770       0.19298371      -0.05357326      -0.92117883       4.64516520       0.66341569       0.29730159
C       -4.75853911      10.46396403       2.75231822      -0.00917213       0.22536064      -0.51109051       1.04752890      -1.40776315      -0.27479181
N       -6.71276525      11.87201027       3.41608215       0.38605321       1.09393622      -0.23484578      -0.47706175       0.84517195      -0.62202570
N       -5.56394924       9.39415430       2.44197062       0.53688903      -0.66803274       0.40312858       0.25541328       1.94127947       0.61462708
N       -2.72211127       9.15160961       2.22392740      -0.16981472       0.12822536       2.01767317      -1.53259540       0.07133571      -0.87233656
O       -1.14429302      12.92828677       4.61560769       1.78344574      -0.66111098      -0.29590432       1.71218680       1.18953984       1.32378155
O       -2.35212898      14.71518151       4.35385297       0.33657500      -1.14554238       0.49287885      -0.09549713      -0.92082356       0.04898268
O       -7.16804499      12.82976360       4.06984841       0.00164910       0.80218199      -0.59551939       0.94202933      -1.16057521      -0.57081346
O       -7.47675985      11.07581967       2.86528886       1.64885574       0.22871456       0.04669420      -0.09725100       0.12370507       0.62330958
O       -1.74542807       9.21316963       1.48143654       0.85850131       0.08606441      -0.24561421       0.03395897      -0.71476421      -0.03044950
O       -3.32153645       8.12278124       2.47966683       0.19617068       0.45448991       0.59348085       0.84021675      -0.02814948      -0.00052306
H       -0.89051939      10.57160516       2.20870319       0.00508035       0.14623210      -0.02738591       0.46663257      -2.03805069      -1.80309266
H       -0.39301234      11.70937544       3.30314371       0.29452541       0.15067699      -0.02494841      -1.03057693       0.20554144      -0.02480190
H       -5.80009105      14.08266246       4.06358153      -0.37517564       0.06000766       0.14221426      -2.57824768       0.78345535       1.02555248
H       -4.07414475      14.59384165       4.10794054       0.18106392      -0.29107451       0.10667836      -2.41465317      -0.02930057      -0.78966121
H       -5.35647691       8.68323116       1.77481278      -0.05925794      -0.23073485       0.30136482       0.68251745      -0.06778588       0.19308153
H       -6.52564224       9.67271982       2.43142575      -0.34222934      -0.18264207       0.22711815      -0.31021650      -0.10015345      -0.18254537
C      -35.99426261      28.19114143       9.53167296      -1.35331719       0.24409745      -1.50644472      -0.42174899      -2.53263540       2.04107971
C      -35.02476657      27.64123689      10.58475498      -0.30731073       0.54247955      -2.34546446      -2.16280156       2.66129351      -1.99840110
C      -37.36398672      27.68424578       9.50915917      -0.69024333       0.08812945      -0.42020826       0.81069658      -0.56582866       0.80915128
N      -35.62368733      28.99630572       8.60207710      -0.16772844       1.24035217       1.75419348       2.29969528       2.44386972      -0.37108317
C      -35.43183235      26.59627674      11.40591891       0.69374610      -1.05800251       0.29976289       1.28430284      -0.14625987       0.77453822
N      -33.95732391      28.50170041      10.90588553      -1.58771126      -0.74908080       1.18761728       1.62661261       1.13954230      -0.48976588
C      -36.70092526      26.01051455      11.18344122      -0.47693092      -0.67650245       1.16712783      -0.30730304      -0.99303475      -0.90715759
N      -34.60484995      26.13971902      12.34379246       0.77655770       0.25058471      -1.59350702       1.13244962      -1.19344996       1.02871214
C      -37.68008948      26.46134500      10.22964640       0.93551603       0.03073002       0.18273922      -1.60697883       1.98694743      -0.40975466
N      -36.92018440      24.76554482      11.74830006      -0.85835804      -1.25683577      -0.16116116      -1.04830679      -2.53849921       2.14550176
N      -38.92527791      25.94158821      10.15532815       1.17156589      -0.04102806       0.62953516       1.34365257       0.82540666      -0.36028612
N      -38.42996903      28.44350356       8.87268094      -0.58568081       0.37641125      -0.03602367       1.41849599       0.91199797      -0.00931324
O      -33.62268234      29.37396605      10.06961069       1.09428479      -0.23973412       0.31761172      -0.56004940      -0.49089044       0.10404303
O      -33.29848535      28.45264486      11.95039757      -0.41934755      -1.83022268       0.17080616      -1.06132532      -1.10531731      -0.01001240
O      -37.92736298      24.09036568     -14.91997828      -0.42618053      -0.67566998       0.14813805       0.40499598       0.68391527      -0.47225771
O      -36.18578132      24.28368905      12.63418520      -0.20789906      -1.39578027      -0.03482024       0.07050856       0.34983355      -0.55867615
O      -39.50907730      27.93893150       8.71126906       0.25751030       0.94308804       0.41703466      -1.30456750      -0.92170788      -0.18875108
O      -38.23894517      29.61615164       8.52973114      -0.73320869       0.96423503      -0.54525395       0.67632921      -0.40622068       0.16757130
H      -36.30968949      29.31148158       7.95874943       0.05048698       0.03683433      -0.22313482      -0.54939276       0.35538973      -0.40256453
H      -34.73043850      29.55124589       8.74816301       0.09120013       0.17591715      -0.26030392      -1.34550622      -1.20573667      -0.16873112
H      -34.74911302      25.17945574      12.71034553       0.01127135       0.29356016       0.36376250      -0.30279585       1.25845169      -0.41535758
H      -33.67215082      26.51483693      12.54879121       0.32331760       0.06804964      -0.15067672      -1.04585523       0.40640872      -0.86413298
H      -39.67523146      26.38461460       9.60916600       0.06444350      -0.59691624       0.39432164       1.25453874      -0.21077113       0.34361256
H      -39.03569433      25.07060216     -15.76101401      -0.16562816      -0.05627205       0.13876319      -0.39723501      -0.42220136       0.19053788
C      -31.45577766      19.52692717      20.73798232      -0.95870113      -0.09049730       0.89567197       1.65429785      -1.65187104      -1.02879541
C      -30.90676175      20.64204844      20.08689582      -0.77310994       0.41980092       0.10435423       1.61858028       0.13737858       0.73487976
C      -32.80991237      19.50156848      20.95044891       0.87798465      -0.10254678      -0.00992642      -2.08908320       3.55382773      -1.39880602
N      -30.67084305      18.38298953      20.84015778      -0.34861054      -0.59013204       0.05585134      -4.07180707       0.39552811       1.29105747
C      -31.59751094      21.85299427      19.83770831      -0.34923623      -1.12116107      -0.95156425      -0.33459503      -0.97011397      -0.10968220
N      -29.40842024      20.65589806      20.11284396       0.50420677       0.87429910       0.15036720       1.57538738       2.44589914      -0.37478131
C      -33.02927668      21.79294979      20.05945185      -0.35980502      -0.62547176       1.32891740       2.02300033       1.49689326      -0.66095427
N      -30.96983048      22.93241392      19.36519483      -1.29790238      -0.47084315      -1.07098182       0.86937896      -0.30073360      -0.54554823
C      -33.67002753      20.65400164      20.49558915      -0.99714188       0.59748935      -0.17286998       0.56109658      -1.48457891       1.27305582
N      -33.72556021      23.05925937      19.85025424      -0.63086992      -0.74848169       0.80989471      -1.47188778      -0.06315347      -0.68847111
N      -34.98909181      20.66128342      20.68994547      -1.49150140      -1.26483525       0.63054919      -1.40611173       2.04014196      -1.78523836
N      -33.45732338      18.41637672      21.50239101      -0.43265703       1.02780276      -0.66607365      -0.36309932       0.53652558      -0.50488429
O      -28.76595616      20.30899464      21.11473821       0.97379152      -0.96908296       0.37409667      -1.42869770      -0.47368149      -0.70297280
O      -28.80146443      21.22631435      19.18664205       0.73764222      -0.69957359       0.56853792      -1.42979294      -0.79117096       0.44147806
O      -34.81904577      23.10161658      19.29424947       0.97205967      -0.53595628      -0.96403900      -0.02820845      -1.14634209       0.12455553
O      -33.21019496      24.09668951      20.21086691      -0.55390271       1.23137025      -0.29826046       1.18789619       0.33294898       0.60595986
O      -34.63949681      18.24913565      21.16229775       2.18770366       0.06152588      -0.47655983       1.01132579      -1.35096859       0.90908126
O      -32.81327780      17.75566492      22.28094811      -1.65489878      -0.15736864       0.15585408      -0.62218316      -1.48242056       0.72630703
H      -30.98295607      17.73492027      21.56388248       0.25673427      -0.08756615       0.01126364       0.31169258       0.25763739      -0.60859784
H      -29.73284562      18.49899961      20.74822594       0.36144843       0.25210036      -0.02313823       2.80172984       0.15503265      -0.11917640
H      -31.45815555      23.79396549      19.29949289      -0.21480692       0.08057057      -0.03792846      -0.28013829       0.43402286       0.01623471