1296
Lattice="-39.19935258229551 3.076821367147664 52.965969636416204 0.0 17.448497426211475 -0.5752802840802391 0.0 0.0 -28.773165715478818" Properties=species:S:1:pos:R:3:momenta:R:3:forces:R:3 energy=-1487788.6776621002 free_energy=-1487788.6776621002 stress="0.005060672728436855 -0.003200301534239425 0.0006973095383633794 -0.003200301534239425 0.0064390895923672285 0.00018195171597451795 0.0006973095383633794 0.00018195171597451795 0.0035418844981401055" pbc="T T T"
C      -24.79999725      16.49844939      30.90488714       0.36323773       0.08341835      -0.43091904      -3.70660425      -3.14855869       3.70669532
C      -26.20105752      16.28929320      30.75946949       1.31646432      -1.45611362       0.06002441      -1.46264535      -1.32514119       1.32621062
C      -24.14220852      15.82491224      32.04356143       0.64389787      -1.46336501       0.17582530      -1.48282212      -0.24279898       1.77591795
N      -24.22965671      17.25352868      30.08894574       0.26373103       1.26734575      -0.58053405       8.07404553       2.38496995       1.95321604
C      -26.99287779      33.05900752      31.15757121      -0.55433080      -0.44216752      -0.86913477      -1.57917733       1.65009172      -1.71013992
N      -26.98949029      16.78054202      29.68286067      -0.20747672      -0.31532978       0.42953935       4.34293529       1.90445390      -1.44486207
C      -26.34539338      32.47834770      32.19417674      -1.05048699       0.18926109       0.86814200       0.32258977      -0.00504186       0.78340921
N      -28.38998788      33.01912026      31.09569945       0.25382139       0.60148501       0.05029259      -0.71965463       1.05857448      -0.75447568
C      -24.93810232      15.09200015      33.02412102      -0.92270242      -1.70909674      -0.04307482      -0.87628455       0.10596414      -0.80598995
N      -27.19823314      31.61518191      32.94150684       0.94499095      -0.35951566      -0.34661987       0.77699989      -3.38305040       3.17394057
N      -24.48191122      14.53379908      34.14909910      -0.63407656       1.85083072      -0.44855567       1.23178470       1.75130841      -2.44097881
N      -22.87387835      16.18685099      32.51091249      -1.57237590       1.14011818      -0.78797242       3.67379443       2.80056254      -0.60794370
O      -27.97939371      16.23390326      29.33771238      -2.03173846      -1.07468052       0.57844553      -2.38816398      -1.02742739      -1.04063530
O      -26.47981692      17.69716887      29.01149270       1.36923890      -0.12507628       0.05445086      -0.71516974      -0.04737596       0.21615200
O      -28.20515176      31.92557842       4.79726821       2.08245009      -0.38067125      -0.35803929       0.69885087       0.70164436      -1.14563608
O      -26.73542425      30.44156122      33.05079003      -0.11633080      -0.81716405      -0.56977848      -0.62781574       1.45862821      -0.18948510
O      -22.29686406      17.17053887      31.86717271      -1.58532847      -2.39231412       1.42591579      -1.21012206      -2.54360892       1.29820194
O      -22.26208765      15.70671760      33.49716958      -0.51299265       0.74939873      -1.73441815      -1.95518954       0.34261178      -2.17822719
H      -23.17651915      17.31127779      30.40868032       0.01461069      -0.13810579       0.25148309      -2.33282547       0.31464171      -1.29914343
H      -24.43356518      17.19150700      29.17938422      -0.16296191      -0.02925259      -0.05015695      -1.28728912       0.51754454      -3.85211110
H      -28.92190187      33.30407923      31.91204923       0.06731125       0.18978462      -0.11334087       0.75120788      -0.77162376       0.20850166
H      -28.91725568      33.41061791      30.25943896      -0.01552964      -0.37622647       0.05869765       1.68660160      -0.94644453       1.40178406
H      -23.51771785      14.36434999      34.30062759       0.20942869       0.30673329       0.06158376       0.63137255       0.28054279       0.03206398
H      -25.09447623      14.10694215       5.95911004      -0.10050585      -0.14723715       0.28682683      -1.92131237      -1.61916952       1.54635572
C      -38.50376757       8.55788460      16.98089258       0.05367187       0.65309132       0.33259604      -2.45325824       0.80462477       2.03334267
C      -37.78669031       7.82263792      17.98979210      -0.73047270      -0.00834670      -0.96854958       2.28545776      -0.31080795      -2.07673781
C      -39.89631969       8.66043230      17.24483406       0.41161916      -2.19802114       0.04120988      -0.51044263      -1.42240776       1.78918617
N      -38.01922692       9.26012292      15.97729515       0.96511516      -0.35111289      -1.25193634       0.13596665      -0.17759760      -1.24754376
C      -38.21498694       7.43451699      19.26277347       1.52981424       0.05284079      -0.32574968      -2.29083818       2.65783870      -1.94653251
N      -36.43578098       7.50680769      17.62665861      -1.01987043      -1.21806479       0.74837976      -0.62329410       0.03470222       1.10324210
C      -39.43429002       8.05272622      19.56525184       0.88228067      -0.54373407      -0.28428735      -2.41634403      -1.14425230       0.73156996
N      -37.60001595       6.81150451      20.17919396      -0.39702234      -0.18940270       0.21354249       0.83742831      -2.68590737       3.57638136
C      -40.40624742       8.31900621      18.57554857      -0.58229267      -0.98953812      -0.04414425       1.72164427       1.31836615      -0.66724243
N      -40.01057561       7.87274127      20.90228653      -0.29949020       0.25684708       0.01673678       0.45614026       2.51306671      -1.11767497
N      -41.68717122       8.46102270      18.92826261      -0.61997979      -1.12211548       0.22404281       0.33361497      -0.07968331       1.75871481
N      -40.83163875       8.92215323      16.18411065      -0.07938678       0.19669229      -0.15992955       0.19249289      -0.37749558       1.21339662
O      -35.87317403       6.56335326      18.18270842       0.37057286       0.11301511      -1.02472997       0.24460393       0.10816384      -0.18457257
O      -35.90355374       8.23333651      16.81307788      -0.56630904       0.13469404      -0.03834752       1.27675672      -0.28588612      -0.53217309
O      -39.70706686       6.98015036      21.61634648      -0.06120198      -0.49540169      -0.68742979       1.10065238      -3.43224357       1.69508504
O      -40.73871118       8.74351429      21.33092894       1.10134063       1.45849418       0.19368045      -1.13708336       1.29715034      -0.16308260
O      -40.65345131       9.90685147      15.46888302      -0.23413014       1.76400263      -1.29539401      -0.48214399      -0.63116498      -0.25943171
O      -41.76811378       8.11624969      16.12141111      -0.03373769      -0.07720439       0.59098561       0.11784752       1.18420974      -0.69067213
H      -38.61049703       9.60073527      15.22645006      -0.08046602       0.09283824       0.07678962      -0.05927453      -0.09710841       0.71430896
H      -37.08220773       9.07619047      15.74237014       0.07578341      -0.16748798      -0.10997100       1.09190066       0.06317774      -0.29014911
H      -38.11178924       6.52070306      21.04252697       0.10405793       0.14383941       0.27246209       0.84925211       0.65958369      -1.25568246
H      -36.69623051       6.45749461      20.07892484       0.13137641       0.17365185       0.24391707       1.28873305      -0.30423975      -0.57514910
H      -42.13678269       8.77340698      18.13576622       0.16940665      -0.02055336      -0.07724852      -2.32899590       0.67677359      -1.04823416
H      -41.97066108       8.71093597      19.92866438       0.11377329      -0.17028689       0.08400797       0.60637014      -0.29733492      -2.25892667
C      -40.10187479      -0.69971779       8.78468857      -0.60400512      -1.25560853       0.79074818      -1.20033222       0.10709351       0.72250420
C      -40.67184450       0.41921447       8.07062569      -0.40969423      -0.31830931      -0.26174867       1.48497611      -0.75651396       0.54402627
C      -41.06073479      -1.63175160       9.22018272      -1.13603402      -0.50609274       0.03805152       0.46100774      -0.91737432       0.38899862
N      -38.82676324      -0.76743366       9.12456640      -0.71006937       0.99141613       0.48444072       1.01240987       0.30907614      -0.63639146
C      -42.03090493      18.03087703       7.15825051      -0.90236587      -0.86048392       1.88736088       0.07399811       0.15143907      -1.09971491
N      -39.78220001       1.44900356       7.79822803       1.19340414      -0.45880634      -1.11417001       2.40051133       4.37545004      -1.06170275
C      -42.94611904      17.05524784       7.53050737      -0.02890671       1.58138517      -0.37366521       0.48375209      -0.81266418       0.24674216
N      -42.39605963      18.95503876       6.25741362      -0.33569941       0.71838433      -1.01881447       0.57978699       2.89188717      -0.43677394
C      -42.45202296      -1.52046172       8.89958788       0.33037199      -0.07480574       0.67787014       1.50347967       0.44692133      -0.81470254
N      -44.30750491      17.11781225       7.07088014      -0.27818274      -1.67961271       0.65250268       2.95034494       0.23846218      -0.52154348
N      -43.23096871      -2.45867992       9.28079210       0.68615483       0.16239551      -0.51391560      -2.70436741      -2.46742788      -0.48933468
N      -40.61194078      -2.76586346      10.07210771      -0.70765979       0.44932582       1.51967030      -1.59662739       1.42773995      -0.13472539
O      -40.22806207       2.62441120       7.86103862       0.73029750      -0.14983997       0.76702042       0.79274452      -2.20836117      -0.25259338
O      -38.53704735       1.28132933       7.50056836      -0.56224820      -0.59201693      -1.25599770      -3.16853072      -0.55666972       0.92251256
O      -44.99435752      16.16639229     -21.46277351       0.28883225       1.30422522       0.51463399      -2.40389593      -2.01837155       0.70656972
O      -44.66954476      18.00605688       6.33022155       0.64044627       0.11412114       0.24583366      -0.98095559       0.67579199      -0.03420774
O      -39.64984638      -2.58636520      10.82062850       1.30806141       0.35118022      -0.19878192      -1.41512237      -0.85983765      -1.11528893
O      -41.35050855      -3.79278371      10.05831897       0.16224232       0.16933745      -0.45865250       2.35089772       0.77124326       0.98321421
H      -38.44756386      -1.54573370       9.67833827      -0.00229217      -0.17298464      -0.03608560      -0.47298223       0.77666859      -0.56824672
H      -38.22186980      -0.09223418       8.61958101      -0.38713570       0.01095661       0.29594743      -0.41526077      -0.70254601       0.58466370
H      -43.33140854      19.08392192       5.97951758      -0.27332251       0.29222732      -0.02534416      -1.22789630      -1.27451357       0.13338442
H      -42.07716811      19.92098618       6.27658043       0.19696267      -0.12331594      -0.12290866       1.48846004      -0.90634296       0.52326552
H      -42.76979879      -3.37100437       9.67733427      -0.29859271       0.48678591       0.31049453      -1.67305148       2.43075322      -1.16211319
H      -44.16321686      -2.32943400     -20.02079368      -0.30272042       0.11937826       0.00045583       1.32897635      -0.88594152       1.68412475
C      -27.04825489      -7.14424380      31.16859452      -0.82114612      -0.19820881      -0.02948323      -0.05022748      -1.90771352       1.95113001
C      -25.90230006      -6.81629325      31.97792628       1.58868082       0.84810602       1.92523041       0.18554219      -0.31700800       1.20389919
C      -27.82084051      -8.30110551      31.50253808      -1.00084574       0.39268925       0.88023079      -0.00142746       0.34969868      -0.94961593
N      -27.46919879      -6.44680642      30.15372391      -0.91782383      -0.08568238      -1.17181724       0.33694537       3.61769407      -1.13884884
C      -25.49055439      -7.67647372      33.12395108      -0.46570012       0.88723092      -0.16365102      -1.18408938       0.60772615      -0.32531133
N      -25.25985412      -5.56274033      31.82097242      -0.37307613      -0.66820331       0.59416013       1.82711078      -0.92957246      -1.02455030
C      -26.48473180      -8.60609896      33.51805760      -0.50994995       0.12263426       0.65242274       0.06642736      -1.23261863       0.37940303
N      -24.34999122      -7.47138862      33.80713392       0.68934526      -0.03205918       2.15961248      -0.05986116       2.09064044      -3.24788659
C      -27.70457701      -8.99009203      32.69205680       0.19689952       2.43246947      -0.15583266       2.84278289       2.18778028       1.25920540
N      -26.17487964      -9.36260528      34.74963754       0.36699454      -0.75838599      -0.06944208      -1.53767874      -0.21453503      -0.66168528
N      -28.55164235      -9.83726608      33.19146141      -0.74087048       1.20845510       0.22973460      -2.04152730      -1.06220463       0.33201540
N      -28.89764393      -8.69474766      30.46391079       0.78710475       0.13503301       0.40742022       1.12168917       0.77763046       3.05749820
O      -24.16970570      -5.36589397      32.39841636      -0.88192914       1.62750545       0.39255488      -1.46344765       0.59015972      -0.64295861
O      -25.68903687      -4.77736018      30.96498410      -0.10601244      -0.39799140      -0.02414936      -0.03682538       0.28272122       0.84353142
O      -25.04272156      -9.44548866      35.17844432       0.68530763       0.57759283       0.92678608      -0.13841754      -0.13735376      -0.04308267
O      -27.13290775      -9.92126339      35.33748274       0.66556116      -0.18978708      -1.23589217       0.59270299       0.42582456      -0.35343984
O      -28.55394232      -9.33454572      29.55992139      -1.06889233      -0.75899701      -0.99940452       2.85882839      -2.67584972      -3.65547736
O      -30.03375009      -8.39888453      30.60537931       1.02375231      -0.17381748       1.11312082      -2.98718189       1.58273066       1.85650929
H      -28.39987740      -6.52688775      29.79498709      -0.10683984       0.12653451      -0.44292300      -0.23453518      -0.50074949       0.15409241
H      -27.18787127      -5.43892771      30.24129277       0.20984312       0.08308627       0.15143913      -0.03287924      -1.41368140      -0.57896492
H      -24.06763885      -7.88682058      34.62939307      -0.11150066      -0.41044688      -0.28200116      -0.09152988      -1.36625616       1.56708836
H      -23.73933703      -6.75167337      33.39738701      -0.13760388      -0.39496618       0.08872660      -0.62832616      -0.46984289       0.48265909
H      -29.39928172     -10.03744837      32.61481753       0.05125996       0.27195873       0.14737151       1.14174822      -0.02929767       1.25776658
H      -28.39216221     -10.02791593      34.21843481      -0.11173141      -0.21735551      -0.16295017      -0.44129139      -0.31339141      -1.51712079
C      -21.07252485     -10.50135714       7.71288339      -0.81774559       0.13141107      -0.16509830      -3.98760256      -1.89201120       1.43163356
C      -20.11847475      -9.54281484       7.59424774       0.13957435       0.57810738      -0.58418369       1.01772956       1.66940074       1.73455955
C      -21.91782594     -10.54521712       8.99046757       0.43260293       0.93889203       0.37636056       2.31088514       0.92185456      -0.89488675
N      -21.39046423     -11.35328712       6.76214650      -0.78071062       1.09242382      -0.06146691      -3.32274553      -1.11792561       0.56747528
C      -19.81033093       8.70763441       8.14893464       1.23123147       0.59695196      -0.32919997       1.20580451       2.30844313      -0.85282927
N      -19.42279636      -9.35054114       6.42244722      -0.89205816      -0.44602257       1.74465332       1.23269680      -2.90343027      -3.32024621
C      -20.55227375       8.66410576       9.31401748       0.65137090      -1.25628360       0.75750594       0.25367811      -1.12816779       4.45174347
N      -18.84109063       9.59812065       8.02883759       0.33822366       1.60605553       0.71818658       2.17178462       2.17465201      -0.19670364
C      -21.44848464      -9.88103678      10.19305791       0.49381245       0.58540936      -0.55964793       0.62302610       0.20250989      -2.19205927
N      -20.05263307       9.43363103      10.60814267       1.03985784      -0.29226462      -1.68593585      -1.09426859       1.37823944      -4.34875108
N      -21.83440319     -10.32060265      11.36443702      -0.31924324      -0.74816961       1.85329740      -2.08285981      -1.74385827      -3.93368543
N      -23.08198563     -11.28991265       9.06559609       0.27878005       0.30393951       0.53504935       0.29495497       0.13355909      -1.96405798
O      -18.68460356      -8.41578952       6.15015080      -2.10797612      -0.04167394      -0.73485788      -0.37998492       0.44913987       0.48689990
O      -19.51572904     -10.31745278       5.59364113       0.19621746       0.18577798       0.69553442       0.44305392       1.72406048       0.86595737
O      -19.37920880      10.43154294     -18.32704663       0.38058748       0.65084376      -0.54118543       1.53475176       0.37518727      -0.65660744
O      -20.60547844       9.26513480      11.63720255      -0.06115544       0.84411363      -0.70226256      -1.33664130      -2.00727826       2.80555112
O      -23.70783915     -11.35936717      10.08335513       0.44069322      -0.73160077       0.31350453      -1.32630760      -0.30152888       2.68687309
O      -23.53997040     -11.79917189       8.05004752      -0.19542973      -0.02506046      -0.15864289      -0.37938370      -0.92176634      -1.35478790
H      -22.41011223     -11.74372514       6.81517106       0.40287937      -0.31976453      -0.13349437       2.71516212       0.69378171       0.20842971
H      -20.80150528     -11.47221753       5.97063121      -0.04464264      -0.11838683       0.11709152       0.33001717       0.23207343      -0.57561199
H      -18.49716133      10.22964614       8.75709315      -0.20849614      -0.50502319      -0.46451060      -1.31146204      -1.09123667       0.51559480
H      -18.33191746       9.88685395       7.18096182      -0.00591942       0.02946644      -0.16346272      -1.26561792      -1.48893730       0.22240076
H      -22.63345666     -10.95054604      11.31137308       0.29432860      -0.39121308      -0.09855180       0.26090930      -0.03335169       0.16719403
H      -21.56066611      -9.99792472     -16.59329950       0.21702709       0.00421989      -0.02950756       1.76488884       2.27425901       4.36081120
C       -8.40128908       7.31100952      -0.32074417       0.96266486       1.50232523       0.78505598      -1.14148099      -2.88554743       0.88896333
C       -8.04523547       6.20525361      -1.29050041       0.04748458      -0.36909239      -0.02363600       0.57957759       1.92470446      -0.10864438
C       -7.61659986       8.48342604      -0.26196926       0.72271117      -0.42388981       1.03014349       0.10500086       0.50720474      -1.06050942
N       -9.39105310       7.12730480       0.60170258      -0.90564549       0.15933558       1.42973782      -0.10936109      -0.78135377      -0.75474056
C       -6.92911814       6.40599592      -2.21562987      -0.30120941       0.41866939      -0.76239436       0.53673490      -0.56665036       0.22855915
N       -8.94215610       5.12980099      -1.57854022       0.42620989      -0.01816293       0.94416283      -2.16406835       0.11039391      -0.79535539
C       -6.08520755       7.49455606      -1.94924764       1.43961622       1.64929592      -1.81284381      -0.51301121       2.30385963       1.71142100
N       -6.59322255       5.58632614      -3.25069047       0.44106796       0.04332686       0.61936244      -0.91008370       0.71435111       1.52076048
C       -6.43853902       8.59059790      -1.04191250       0.34460953       0.14211652       0.67908175       1.55068665      -1.41164626      -1.41809257
N       -4.93325374       7.71305093      -2.82028666       0.93380434       0.56859910       0.01341270      -1.04032100      -1.13460868      -0.13561705
N       -5.56009540       9.59286504      -0.89708491      -0.39616595      -0.16732957      -0.38986857       1.34860842      -1.76842599      -0.75221924
N       -8.16113018       9.65091213       0.33429988      -0.04114887       0.32822799       0.85373535       0.74985668       2.28118782      -1.08052267
O       -9.03367144       4.71042341      -2.77136155       0.69132906       1.01399932       1.39150758       0.65170397       0.36985897       2.18903272
O       -9.74293317       4.74991274      -0.70713859      -0.23075314       0.17828992       0.72830732       1.23613255       0.31832591      -0.79952960
O       -4.26024210       6.67140123      -2.99543958      -0.91571339       0.28773616       1.89626240       0.13528771       2.00334467      -0.41049479
O       -4.80039080       8.79498637      -3.37223139       0.47730424      -0.48418639       0.84666263       0.85946732      -1.29529915       0.25335868
O       -7.61816694      10.78288255       0.10504773       1.50893574       0.07492374       0.46763553      -0.92722397      -2.33623753       0.74657992
O       -9.22167106       9.58126590       0.93264943       0.50922152       0.74629868       0.10015296      -0.02876481       0.60176934       0.53022925
H       -9.76064533       7.89081406       1.19122549      -0.12318467       0.12592287       0.33256792       0.88393161      -0.70559146      -0.88766767
H       -9.84906446       6.20975682       0.64659530       0.26222786       0.39502292       0.09062878       0.49175823       0.61913156      -0.40099808
H       -5.62553217       5.59615837      -3.56893881       0.13131132       0.17567489       0.27252272      -0.92039769      -0.27843964      -0.00324396
H       -7.35324112       4.96715846      -3.46998215      -0.26339158      -0.06248098      -0.16351493       0.28565813      -0.55608818      -0.48374448
H       -5.91457618      10.47082226      -0.72549281       0.07493451       0.34105042       0.22196245      -0.74574191       1.99969917       0.86386561
H       -4.64100313       9.55754891      -1.34522640      -0.36124795      -0.10692102       0.02664766      -1.08460411       0.04645698       0.21047038
C      -18.26088424      33.24001231      35.69315950      -0.49462498       1.17896346      -0.77646477      -0.89192394       1.58577243      -0.31128613
C      -18.30384540      32.55954663      34.49015976       0.06147346       0.30768041       0.98542373       1.06992185      -1.19720852      -0.02410932
C      -19.47556333      33.10560728      36.52905667      -1.39432336      -0.73979921       0.50464775       3.31523371       0.42994551      -0.72255232
N      -17.25789135      34.15281864      35.83872108       0.31949674       0.17499701       0.97474309      -1.00471566      -0.99017255       0.54244912
C      -19.10213385      31.41878543      34.36835896      -0.27807919       0.09316326       0.20863695      -1.12213755      -2.43572662      -2.61009239
N      -17.07837378      32.56297591      33.63112392       0.98787451       0.91583616       0.05789873      -0.20189050      -0.90772360       0.37709735
C      -20.29115033      31.22659725      35.13634433       1.04563168       0.36821906       0.75005778      -0.66034763       1.47424941       1.31454809
N      -18.77475201      30.54721745      33.36766909      -2.11265869      -0.39008520      -0.93804256      -0.11856347      -0.81762546      -1.23585587
C      -20.49629666      32.20095623      36.17722097      -0.34819050      -0.51412920      -0.31526890      -1.63389693       0.90580415       0.53647579
N      -21.41941938      30.33800836      34.74077250      -1.05995234      -1.25312035      -0.79077633       2.86886261       0.84379346      -1.63960578
N      -21.67792634      32.40091319      36.81163432      -0.41187508       1.62771843       1.56763297       0.18323210      -0.83593956      -0.50371218
N      -19.40818773      33.78165854      37.80101650      -0.54385889      -1.15076293      -0.17417248      -2.20916172      -2.20622126      -0.14783555
O      -16.42563546      31.51443004      33.57637537      -0.23308555      -0.14352760       0.63546353       0.12532986       1.03645276       0.21818317
O      -16.76569484      33.55537451      33.01323974      -0.11602932       0.24742110      -1.36714074      -0.16586552       0.56712328       0.16383900
O      -22.57705013      30.69923371       6.09204048       0.52444496      -1.03385447      -1.45227570       0.10713333      -0.52699179       0.98087700
O      -21.07168087      29.34916038      34.10437723       0.33397956      -1.47686039       1.32163280      -0.87808137       0.01093856       0.65261619
O      -20.35474291      33.72131984      38.59237441       0.22487484       0.09638335       1.00520659       0.47343974       0.50645527      -0.53667534
O      -18.35166218      34.25727922      38.08754295       0.62755912      -0.53225677       0.41403796       1.55071119       1.61358426       1.23619016
H      -17.22206598      34.52873111      36.75982340       0.04078266      -0.08333788       0.30371524       0.53339800       0.33825084       0.44488665
H      -16.44181352      34.15699986      35.25163857      -0.16672209      -0.13017817      -0.19732872      -0.32448325      -0.10693860       0.07924650
H      -19.30614757      29.86255271      32.85305182       0.17938336      -0.21174568      -0.32854266      -1.46938785      -0.04703418       1.51959480
H      -18.03283802      30.66171264      32.70325956      -0.04790095       0.17710690      -0.16476014       0.60000446       1.00878095       0.78598881
H      -21.87741205      33.02482694      37.58983815      -0.38580729      -0.34477728       0.05809733       0.88372500      -0.20180835      -0.47039269
H      -22.47093105      32.02517457       7.58914396       0.11093491       0.16249107       0.22631315      -0.61213153      -0.55141059      -0.28731245
C      -51.22187380      23.89701183      37.60686384       0.54664607       0.38222247       0.30811065      -1.29166819      -0.93810235      -0.86025858
C      -52.29931900      23.21036014      36.87810841      -0.23855432      -1.01428945       1.64768111       1.91455308       0.37644272       0.67127566
C      -49.89610762      23.30135568      37.55520425       0.17286798       1.00947776       0.94436355      -0.47555933      -0.24433143      -0.74786726
N      -51.46904669      24.99684220      38.28076865       0.75177759       0.42612004       0.22003117      -0.23847208       0.14836245      -0.58191489
C      -52.02008985      21.91929066      36.30236007      -0.78946705      -0.96949364      -0.92921426      -3.29676246      -2.40080602      -1.63608834
N      -53.66472757      23.65404717      37.09152483       1.94798354       0.59193189      -0.10296307       1.96757724      -2.17751421       0.27562559
C      -50.83185376      21.18868049      36.57053552       1.18108381       0.60866890       0.28833656      -0.37579423       3.13031572       1.15968248
N      -53.03821705      21.35921418      35.53373949      -1.46813898       0.41171709       1.36289727       0.80735772       6.13931286       1.28386749
C      -49.70061144      21.97851232      37.02050419       0.01886478       0.18438408      -0.27794014       0.24708897      -0.11011307      -0.65379390
N      -50.80220865      19.83002795      36.41603866      -0.82430371      -1.41612345      -0.48339609       2.17435690      -3.34783041      -0.57203503
N      -48.49665711      21.50815541      36.80228365      -0.97344491       0.60069639      -0.42889473       0.71899179       2.47453966       1.41274961
N      -48.72453576      24.07165419      37.68388640      -0.11131177       1.00135299       0.53880373       2.67802593       2.14428281       1.63517343
O      -53.86199778      24.42818740      37.99007585       0.82988430      -0.65746000      -0.49856655      -1.00237620       2.05815485       1.14808568
O      -54.56324359      23.08110421      36.52377818      -0.42123274      -0.38759953      -1.24650053      -1.31598679       0.66726929      -1.26994825
O      -51.74128248      19.19608851      35.94387453      -0.71558646      -1.19601994      -1.84858388      -0.46773692       0.63085935       0.08291534
O      -49.75681936      19.19647444      36.73448340      -0.52846646       0.66367905       0.73105619      -1.06550468       1.15181948      -0.08973961
O      -47.59496696      23.57745188      37.46198841      -0.18928206      -1.65325937      -0.66200951      -0.63723120       0.42541184      -0.10659271
O      -48.70032198      25.25813623      38.07476789      -0.20793552      -0.91090898      -0.13713979      -1.94346235      -1.36541209      -0.18837858
H      -50.71335288      25.47861039      38.67017853       0.18017910      -0.10673926       0.07388328       1.32342381       0.75083751       0.53136521
H      -52.36823704      25.46884927      38.22736522      -0.01299818       0.07468181      -0.41889971       0.41693254      -0.72346883       0.07824000
H      -53.17440340      20.40869508      35.34517243       0.25305884       0.03531037      -0.22368582       0.26640250      -1.01091513      -0.14204008