1296
Lattice="-42.46974095915784 -2.6022730361409163 24.85397337501808 0.0 14.870194011564257 2.4343119674968525 0.0 0.0 -31.45477773793038" Properties=species:S:1:pos:R:3:momenta:R:3:forces:R:3 energy=-1487788.6874904158 free_energy=-1487788.6874904158 stress="0.005888417144875157 -8.359445406742788e-05 0.00015893757058321742 -8.359445406742788e-05 0.004733185773137385 0.0006173890040017743 0.00015893757058321742 0.0006173890040017743 0.005829927684866039" pbc="T T T"
C      -28.86369237       5.98812701      16.31655873      -0.58935731       0.73842683      -0.18214730       0.59255828       1.31509887       2.63811756
C      -29.92969383       6.66433142      17.00762227      -0.07167162       0.05562177      -0.56006932      -0.49688915      -1.04205059       0.64964161
C      -27.67913176       5.69890364      17.07637187       0.81487861       0.08634734       0.76984115      -0.23219019      -0.38434027       2.47295963
N      -28.92117774       5.78500955      15.06439279      -0.28085487       0.86706183      -0.15486942      -4.20747442      -0.01403815      -3.30249488
C      -30.02608621      21.45283364      20.90450805      -0.84244360       1.35684530      -0.15769238      -0.79446070       2.05945317       0.20286628
N      -31.03659790       7.18592682      16.22614525       1.80499358      -1.89618443       0.30149157       1.74020056      -1.78368588      -0.31798601
C      -28.94309750      20.82996862      21.69099949      -0.57237843      -1.34643623       0.37778604      -0.91038047       1.38153695      -0.83683478
N      -31.05347203      22.14397535      21.47998105      -0.11486332       0.74131490       0.99283263       2.62667340      -1.72396372      -0.51564891
C      -27.73604931       5.62926898      18.59514878       0.04459155       0.55915196      -0.19272556      -0.44131531      -0.40488640      -2.80511910
N      -28.98111741      20.93069404      23.15422583      -1.55504242       0.50310488       0.25078360       1.09646555      -0.62364555      -1.04843721
N      -26.77495612       5.17110335      19.33799361      -0.15175584      -0.12135005      -1.15885269       4.63545772      -1.22379619      -4.26062582
N      -26.48260744       5.32333395      16.41704649       0.16430653      -0.12646276      -0.43368000       1.39787222      -0.31180218      -0.29643758
O      -31.87566478       7.81030527      16.79925377      -1.61283637      -0.46060107       0.30596525      -1.82954073       1.60735718       0.25347344
O      -31.13775192       6.96426953      14.99603243      -0.54386063      -1.95321883       0.46073630      -0.04135567       0.12806988       0.58805644
O      -27.99726730      20.73316782      -7.54938742       0.02440384       0.64452127       0.09089669      -1.00547107       0.13558790      -1.17135745
O      -30.06712904      21.18898621      23.58297556      -0.67580169      -0.64020214      -0.52130387      -1.21050851       0.34073796       1.73939406
O      -25.57182707       4.73623851      17.00878899       0.38402942       0.22990028       0.86399236      -0.34715710      -0.26529724       1.36757867
O      -26.26420232       5.59874580      15.23632787      -0.10602947       0.08416738       0.16669649      -1.40499161       0.47097726      -0.58804737
H      -28.15500503       5.35881524      14.65455426      -0.05421794      -0.19228291      -0.10898577       1.55600300      -0.67080393      -1.10208125
H      -29.88584821       5.94723208      14.52445304       0.21262321       0.29188595      -0.08596119       3.25080685      -0.17005259       1.80740520
H      -31.07292424      22.21762327      22.45435752       0.00386466       0.21871180      -0.00151212      -0.05163398      -0.26854818       1.27002035
H      -31.75850357      22.57722909      20.95292425       0.03588365       0.62869734      -0.17767133      -0.53854384       0.26403438      -0.87222821
H      -25.80355214       4.82468021      18.94511015       0.02562636       0.26824716      -0.01268407      -3.08582786       1.29170742       0.59221669
H      -26.98957848       5.09886962     -11.19918563       0.19002908       0.10890308       0.16258166      -0.22036842      -0.17545928       3.56837774
C      -45.62422549      -0.69562040      -7.67625331       0.89611098       1.54964937       0.98072074      -1.00783886      -0.46291450      -1.91765213
C      -46.27508121      -1.76319259      -6.94949346       0.13703857      -0.28446142      -1.22635580       1.04800199       4.27494604       1.00398789
C      -45.52433883       0.55426940      -7.06874283      -0.70240504       0.58601374       0.55718221      -0.96649212       0.84986813       0.36816820
N      -45.33314532      -0.82760912      -9.02282178       0.04940949      -0.62138530      -1.61820108      -0.82271306      -2.83918341       4.54842063
C      -46.67604432      -1.55642247      -5.62008947       0.72747803       0.16212914      -1.03849201      -0.17259901      -1.19821700       0.89873443
N      -46.34557816      -2.97724464      -7.53499050      -0.01854899       0.35123928       0.47506305      -0.75382611      -4.19437021      -1.74605094
C      -46.53965359      -0.27761763      -5.01865868      -0.24269027       1.34305362       0.32843935      -0.98898340      -2.54754799      -0.55579698
N      -47.05356252      -2.63800851      -4.93050434      -1.47919695       0.25881998       2.05769149      -0.06969558       0.47841076       0.39302338
C      -46.06115116       0.77680798      -5.73831607      -0.19750986      -0.18382921      -0.58657146       0.36513936       0.97090376      -0.88079059
N      -47.03471255      -0.09649627      -3.71901464       0.95009558      -2.95809703      -0.12053243      -1.00606076      -3.09191974      -0.48390866
N      -46.17208462       1.97537266      -5.19483752       1.99666786      -0.76851996       1.66007018       1.24529842       2.27130307       1.14308315
N      -45.13195010       1.69885590      -7.88625317       1.17107700      -0.81826544      -0.55126099       0.90708728      -1.37277801       2.69801938
O      -47.36984719      -3.68174745      -7.56270135       1.30566822      -1.69910612       0.79641009       0.81698707       1.34067793       0.55993963
O      -45.30004902      -3.36984514      -8.05487968       1.90337563      -1.11067772      -0.51486521       0.35091771      -0.03308971      -0.56146599
O      -46.65803110       0.84859985      -3.11372854      -0.16565867       1.02798472      -0.76500368       0.26584031       1.92241698       2.94823771
O      -47.78941788      -0.96648616      -3.22936875       0.82567991       0.80091290      -0.88247282       0.50163779       1.28359764       0.00115209
O      -44.66005875       1.56894271      -8.97628038      -0.00151935      -0.75975373       0.19352077       0.04458734       0.02606068      -1.75458572
O      -45.09440477       2.76182038      -7.29886765       1.34204948      -1.20944568       0.52236046      -0.08683132       1.99103886      -0.17287261
H      -45.05826104      -1.80450572      -9.14905616      -0.20001979       0.23495639       0.62415652      -0.04544434       0.94187332      -1.46461421
H      -45.30662735       0.03444479      -9.47936517       0.38540241       0.39641419      -0.30098360       1.01944514       0.44140938      -1.68196677
H      -47.35605796      -2.66496078      -3.97076353      -0.26223723      -0.07474672       0.19921048       0.05637323       0.62527823      -0.35548850
H      -46.78597900      -3.50452141      -5.28938535      -0.27497488      -0.39811838      -0.12283282      -0.02871241      -1.38834419      -0.55356537
H      -45.55800212       2.60796595      -5.68227796      -0.01503809       0.21880560      -0.00551066      -0.47027766       0.58054605       0.08692999
H      -46.20526487       2.11707869      -4.14859596      -0.21092607      -0.26709634       0.29139732      -0.25469522      -0.81501012      -2.06491331
C      -43.22043091      -2.13586709     -34.68722142       1.03966079       0.04647461      -0.55998225      -1.03983431       1.01402450       0.31211041
C      -43.05107865      -0.70079185     -34.58057624      -0.10147246       0.91350686      -1.46562411       0.68181264      -1.41837458       0.67781568
C      -43.48168679      -2.85957521     -33.47285849      -1.28678338      -0.05957989       0.31755209      -0.03286233       1.11755644      -0.15777661
N      -43.21520150      -2.69876012     -35.89935443       0.37175404      -0.23074067       0.24599508       0.06266069       1.70424479      -1.60309971
C      -42.81243576      14.82172200     -30.91501875       0.40417041      -0.62061196      -0.50377712       0.71189396      -0.90132745       0.54449910
N      -42.62839030       0.04388158     -35.76846456      -1.07553278      -0.27734471      -0.85308276      -0.78217351      -1.48977357       0.45692777
C      -43.10250218      14.08632579     -29.67944927       1.17011816       1.03984747       0.47955291       0.62587869      -0.44995100       0.32890184
N      -42.05537907      15.95533338     -30.96138650      -0.89938562       2.41735911       0.46259587      -0.78376576      -0.24938490       0.41038561
C      -43.37211555      -2.20893305     -32.16430247      -0.49428889       0.20697314       0.29586660       0.21115412       0.05534818      -1.14637178
N      -42.89644129      14.70019883     -28.32611410      -0.39444498       1.04867680       0.30873779      -0.28904562       0.45388014      -1.62886477
N      -43.46905725      -2.88994737     -31.03808489      -0.26202010      -0.79376313       1.00509243      -1.43449622      -3.42878131      -2.99286217
N      -44.07645072      -4.16874715     -33.56514263      -0.48576068       0.41045848       1.38617519       0.60917895       1.74390530      -1.12434997
O      -41.73015979      -0.39617134     -36.46380545      -0.55442713       0.29518961      -0.21240523       0.12316221       0.25471582      -0.15382086
O      -43.30816239       1.01115804     -36.00513433       1.70265663      -1.43090252      -0.31839559       0.13457296       1.38273075      -0.36456661
O      -42.96328513      14.00977512     -58.71506949       0.69440165      -0.90380746      -2.09824366       0.39886300       2.65569980      -2.04982221
O      -42.71208642      15.93406599     -28.40169986      -1.11877528       0.15650053       0.16632710      -0.03189260      -2.17165616       1.74919157
O      -44.46828322      -4.58713509     -34.64041981      -0.23639118       0.24765350      -0.34514451       0.15604999      -0.21912672      -0.19958392
O      -44.21000952      -4.77748054     -32.54062222      -0.37457782      -1.57736753       1.22831480      -0.54768829      -1.87984500       1.79515818
H      -43.46687945      -3.63317005     -36.08433687      -0.05058997      -0.10046394      -0.27289555      -0.29009634      -0.99186990       0.61377993
H      -43.19884020      -2.12814145     -36.76292661       0.13273559       0.17894374      -0.40608155       0.21308761      -0.41722914       1.39233308
H      -41.85782728      16.34772958     -30.07026665       0.09361972       0.28118615      -0.00131076       0.01616527       0.28202853       0.72138824
H      -42.25321767      16.66208713     -31.63806960       0.23195476      -0.10622418      -0.01929903      -0.08060909      -0.09096624      -0.64581465
H      -43.80278674      -3.89010808     -31.07903512      -0.36567730       0.07678836      -0.13474480       0.83848288       1.93383225      -0.03663688
H      -43.28447448      -2.36094414     -61.72337634       0.16149125      -0.16835689      -0.43077604       0.37871401       1.18180824       2.98773706
C      -31.67951718     -10.30611248       7.35623054      -0.34280238      -0.23897050       0.21699566       1.32659032       0.92220095       0.95165528
C      -30.31755134     -10.52301791       7.82957913      -1.14401091       0.13235282       0.13851364      -1.88312862       0.79638715       0.56169875
C      -32.34634006      -9.01358011       7.66556908      -0.12931964      -0.08832372       1.00407098      -1.22011671      -2.85294217      -2.27278038
N      -32.23501598     -11.26223402       6.66997521      -1.19965599       0.80620549      -0.79251614       1.35078566      -0.85089835      -0.52961380
C      -29.79447181      -9.51501462       8.67227200       0.74585546       0.89861891       0.41021340       1.52658300       1.40147693       1.65394191
N      -29.66086687     -11.77328195       7.60702802       0.74070977       2.95338030      -1.37143460       0.12316267       1.54213444      -0.85309521
C      -30.49406486      -8.21462226       8.91912008       0.13956710       0.10650961      -0.52229926       1.12851827      -2.39251424      -1.82767978
N      -28.59091111      -9.75788006       9.25726545       0.38184335       0.43760108       0.11108566      -0.18834646       0.43200546       0.07998675
C      -31.74085775      -7.92044440       8.27860285      -0.31896994       0.18103900       0.08823343       1.65928466       0.11656478       1.42673248
N      -29.57948768      -7.17905283       9.34032795      -1.39989398       2.23324012       0.61120436      -0.68673073      -0.22687395      -0.17691725
N      -32.29162534      -6.71872965       8.44508418       2.18433032      -0.85932623      -1.82585238       1.70884418       1.73458103      -0.17887517
N      -33.62311083      -8.81817247       6.97124978       0.70138607       0.98152433       1.27531676       0.80401340      -1.92493346       0.22756827
O      -28.54049231     -11.98961100       8.04089677       0.09454310       0.77741382      -1.53831564       0.13028948      -0.37969716       0.60694044
O      -30.19756248     -12.56594080       6.84352215       0.81490082       1.05663804       0.23915275       0.46798563      -0.76033587      -0.19793622
O      -28.93200281      -7.42001727      10.34485759      -0.58624897       0.12051998       1.40179512       0.49903802       0.62043785       0.23095151
O      -29.44684468      -6.17467951       8.65830130      -1.10704583       0.28124622       0.99029044      -0.39360244       0.14097873       0.23913603
O      -34.14168258      -7.73845337       7.10412233      -1.20610486       0.26048695      -1.69896596      -1.23491666      -0.01066218      -0.66018275
O      -34.13720257      -9.77677854       6.30528892       0.06168576      -0.97706260       1.68938786       0.23087801       2.66160270       1.13345599
H      -33.13282542     -11.07478110       6.35802444      -0.06156290      -0.19549491      -0.17240431      -1.92758596       0.05104774      -0.87631407
H      -31.64355802     -12.01450917       6.26358074      -0.37596209       0.10865736      -0.09163434      -0.73023588       0.78466208       1.01201260
H      -28.06530833      -9.02487807       9.75808303       0.12340176       0.08429326      -0.03900468      -0.83573204      -0.84717279      -0.48114559
H      -28.19647475     -10.69991184       9.11894898       0.13388814       0.16433624       0.21921490      -0.17792386       0.92119529      -0.12021485
H      -33.24913486      -6.61649041       8.18625665       0.26801052      -0.45049075       0.28878748      -0.18239812       0.38272393      -0.25381382
H      -31.64336679      -5.88509316       8.45660290      -0.44667087       0.13316510       0.18278291      -1.30217454      -1.64210740       0.37019744
C      -19.08640064       0.01414491       1.14976953      -0.54114439       0.85939389      -1.25344772       0.51920756       0.43176280      -2.43558755
C      -18.79381873      -0.32764281      -0.25755719      -0.20696787       0.25157469       1.38741143      -0.24582452       1.18303070       2.38177201
C      -20.36822069      -0.29107848       1.60539152       0.55652170      -0.27981040      -0.27728734      -1.72144172       0.81096826       1.32267171
N      -18.18706682       0.74316753       1.82454007       0.38454226       0.53256392      -0.22115814       0.69293473      -0.77011502      -1.18947558
C      -19.70990081      14.03033232       1.33208165      -0.36161809      -0.53377798       0.34920740      -1.92226982      -1.14496969      -1.02366148
N      -17.62441124       0.27272202      -0.92038198       0.63228827       0.03784086       1.65976178      -0.90527446       0.29896425       2.54649849
C      -20.98839598      13.58688956       1.84297549      -1.43592182      -0.34831710      -0.53726234      -0.12091712       1.86808541       1.23660157
N      -19.47460205      13.87795699       0.03034510       0.44685895      -0.05397520       0.79506406      -1.86386320      -0.38454498      -0.77966304
C      -21.40094309      -0.82430470       0.75231896      -0.26306757      -0.96604833      -0.31778769       0.09229496      -1.84901642      -0.94809882
N      -21.98412009      13.23652119       0.90597341      -0.05951836      -1.36552647       0.98061105      -0.79818143      -0.56057829       1.59497412
N      -22.64132896      -1.08292329       1.18308185      -0.16940501      -1.12085721       1.41556564       0.16812436       0.30696528       0.77488997
N      -20.80155637       0.34990364       2.92805799       0.41077957       0.66705687       1.40845963      -1.33992071      -1.74318768      -2.84414003
O      -16.61665565      -0.30845893      -0.59297749       0.72829468       0.34199015      -1.03444410       1.65981598       0.37755611      -0.83478526
O      -17.72956490       1.33487013      -1.50710942      -1.77682512       1.83701541      -0.09076344       0.34010266      -0.57414710      -0.49355019
O      -23.06919949      12.85100738     -30.12766157      -0.69101489       0.02242649       0.10356066      -1.16078296      -0.08096193       0.56442354
O      -21.80812199      13.24005444      -0.28676518       0.50384158      -0.61907900      -0.10900136       0.50674032       0.13539392      -2.09774281
O      -20.00327690       0.70296089       3.70860068       0.13180371       0.37445219       0.51369802       3.27373353       1.07566308       1.82856038
O      -21.98392532       0.46258954       3.16056905       1.04681644      -0.85316566       0.92299763      -1.47666642      -0.23943088      -0.19180985
H      -18.39845241       1.39486094       2.54073079      -0.14617665      -0.00889931       0.08191813      -0.32653485      -0.13095385       0.57396418
H      -17.31582592       0.82118648       1.33947456       0.03868655      -0.07749286      -0.02558368       0.31783519       0.38400525       0.22242072
H      -20.37104038      13.64396112      -0.55922260       0.01133831       0.01571353       0.25340390       2.56647985       0.53019535       1.07465213
H      -18.58230056      14.15575012      -0.28707999       0.13132626       0.05476438      -0.09527962       0.48605300       0.12449752      -0.79377379
H      -22.85926859      -0.89503738       2.17141655       0.08328309      -0.32247357      -0.31206335       0.19841383       0.17880040      -1.20403873
H      -23.33128518      -1.44772809     -30.93642750      -0.10591953      -0.01022172      -0.30741446       0.72786980       0.11778513       0.49911274
C       -6.53152075      10.00991832      -4.77874120       0.60971538      -0.72449766       0.81863007      -0.31252050       0.94536538       1.28630126
C       -6.90900646      11.37324854      -5.06730939      -0.90396267       0.31018962      -1.41730736       0.56172111      -0.77909532      -0.62446436
C       -7.36928331       9.23779284      -3.88472240       0.73520545      -0.43950001       0.84029601       1.06716952      -0.83780653      -2.24946105
N       -5.34195877       9.59481786      -5.11010685       1.36746017       0.94211459       0.56609370       1.28433853      -2.43781301      -0.83576423
C       -8.05924218      11.90438840      -4.52027440       2.08588758       0.94269932       1.34396947      -1.03330920       1.99008116       0.38026184
N       -5.98511551      12.24420377      -5.75504940      -0.55860359      -1.10599648       0.30449035       0.74747105       1.70441058      -0.29719583
C       -8.85373099      11.06593673      -3.65575899      -0.20883938       0.91268968      -0.16641198      -0.96535593       2.40675875      -1.08651616
N       -8.38796526      13.25962920      -4.68522936       0.07987049      -0.62764525      -0.56815693      -1.19237719      -2.32361313       2.77778524
C       -8.59161606       9.73888319      -3.41336181      -0.92130902       1.02323541      -0.87623852      -1.10703318      -1.53210515       3.44025133
N      -10.22975001      11.59616385      -3.20111452       1.21709779       0.62351848      -0.08793168       0.45842343      -3.81600753      -2.34874501
N       -9.34636930       9.06290681      -2.42596528      -0.41264422       0.80104709       0.60840179       0.41947944      -0.54841748      -1.60235334
N       -6.98313170       7.87970696      -3.62649727      -0.37782183       0.68607130       0.88113302       0.75590763      -2.47136404       3.10937286
O       -4.78622354      11.94839408      -5.75453395       0.67738496      -1.92859706      -2.43244144      -0.44793713       0.06253569      -0.18221920
O       -6.33859680      13.33049228      -6.26811380      -0.97417213      -0.73571290       0.39704208      -0.17337939      -1.93003068       0.70113854
O      -11.17975430      10.94490519      -3.67874976       1.20486914      -1.29796606       0.47385438       1.09053170       1.64965520       0.85280809
O      -10.30592455      12.46862914      -2.39835621      -0.89531281      -0.10593873      -0.62055048      -0.07547027       1.43011713       0.84268268
O       -7.59827554       7.28273925      -2.70912584       0.20380502       1.30868029      -0.21510648       0.23680836       0.82669722      -1.72539030
O       -5.97873616       7.27761985      -4.08631548       0.18004687      -0.71100477       1.41238014      -1.36687172       1.77987224      -0.76112780
H       -5.10622174       8.59384375      -5.01370307       0.01182042       0.40127508       0.09298185      -0.48316586       0.93662177       0.26317654
H       -4.71599575      10.15863356      -5.65381754      -0.18045585       0.18516780      -0.07249540      -0.17538361       0.31746787       0.07051888
H       -8.84821281      13.52605307      -3.78147524       0.35102288      -0.06806391      -0.16021871       0.42607398       0.60675829      -2.06865868
H       -8.04450219      13.94179592      -5.36915159      -0.10471137      -0.26448235      -0.38165819       0.12897673      -0.98374324       0.89256863
H       -9.41170883       8.01996044      -2.39536374      -0.16220380      -0.18595425      -0.13880644       0.73516343       1.77887136      -0.29221845
H      -10.15134283       9.49773735      -2.02422754      -0.05543255       0.14768169      -0.21600218      -0.10590197       0.44385998      -0.31085125
C      -28.14550057      25.62537316      34.40113669      -0.24221969      -0.09903286       0.88796637      -1.77347822       0.01134988       2.25925792
C      -28.13609594      25.48165303      35.91726375       1.21982194       0.20098636       0.47595269      -0.10166544       0.08286786      -5.02007862
C      -27.91673383      26.88950184      33.86235240       0.50556798      -1.01038651      -1.86898680       0.21064821       0.15240387       1.42782501
N      -28.55418536      24.61718648      33.63325733       0.94839736       0.43337356       0.67565649      -1.00981740      -0.57869235       0.27018183
C      -27.63878601      26.49374479      36.70088278      -1.87726339       0.37074428       0.32935203      -0.48148955      -0.39730201       3.31287281
N      -28.96395511      24.43746813      36.45799879       0.25311608      -0.87125217       0.55891937       0.14066880       0.09254832       0.13736769
C      -27.18192971      27.71347830      36.12486661      -0.46996555      -1.28378604      -0.47155634      -0.27194546       0.34519607       0.61502932
N      -27.67585588      26.23292638      38.06580010       0.13767050      -1.10753736       0.38266925      -0.91474279       0.82373698       0.11833301
C      -27.34006848      27.91290149      34.74530402      -0.54922645       0.04174671       0.99540312       1.01123341      -0.41770500      -0.17569037
N      -26.69798313      28.83004382      36.97767122       0.56314274      -0.95665955      -0.20624739       0.93883879      -1.31845437      -1.35669597
N      -26.75869290      28.94304247      34.18990436       0.14165389      -0.75574771       1.04623078      -0.93503087       0.75836037      -1.27686674
N      -28.32130111      27.15072281      32.53809668      -0.95599624      -0.00807938       0.88473586       1.77507062       0.39049911      -3.15820058
O      -30.07782373      24.22313486      35.97053174      -0.38884814      -1.56320255       0.03461922       1.04486610      -0.03680858       0.34351909
O      -28.49988614      23.87237817      37.43454559      -1.02222485      -0.39576914       0.63383934      -0.81792959      -0.68161190      -0.02293328
O      -26.29599092      29.90529509       5.05452360       0.47934091       0.84723689       0.97361752      -0.79925374      -0.88169086       0.48485055
O      -26.57197720      28.54580383      38.14992037       0.74763909       0.50616349       1.68390327       0.01666323       0.85794487       0.87735515
O      -28.27500376      28.33515182      32.11998739      -0.64368297      -0.41005728       1.02214919      -0.58165966      -1.72666408       0.72398316
O      -28.50477999      26.20039026      31.70917832       1.05090220       1.01986252      -0.82570689      -0.33702863       1.96132058       1.84505683
H      -28.97788413      24.83658428      32.72761214      -0.12904512       0.05435222      -0.12880539       0.85659622       0.02884918       0.12307276
H      -29.10839270      23.94178313      34.12017827      -0.26372215       0.18282640      -0.01573609       0.11198521      -0.42956090       0.28731918
H      -27.42661424      27.00995029      38.66983636       0.08068270      -0.14375508       0.48435131      -0.01496158      -0.36772292      -0.37538971
H      -28.43797076      25.64211318      38.45823634       0.43217651      -0.57844276       0.26053073       1.33847177       0.73342219      -0.91860014
H      -27.13226555      28.98602484      33.24743237       0.02342785      -0.26045167      -0.12401511       0.67616136       1.13542257      -0.27870502
H      -26.46787076      29.74988081       3.29138921       0.13833542       0.14181351      -0.26921254      -0.17669673      -0.49865834      -0.41400491
C      -59.01972745      12.54198524       6.01014078       0.12293696       0.39993539      -0.90824888      -1.25032924       2.47118838       0.01202837
C      -57.75526613      12.14976286       6.49186219      -0.23174488       0.96247960       1.04386091      -2.04330378      -3.98245202      -0.97866951
C      -59.47698694      13.94200649       6.19535887      -0.52962018       1.57576198      -1.00122429      -0.16071000      -3.95690186      -0.31885790
N      -59.86383601      11.69447760       5.43775044      -0.33614817      -1.18032471      -0.56806132      -2.29290399       1.19662795       0.23147039
C      -56.79370283      13.01101342       6.94136971       0.10487658       0.77713622       0.48345555       0.04973941       3.89303303       0.30790872
N      -57.49704995      10.59663875       6.62073285       1.40498965       0.34633472      -1.22693349      -0.59174202       2.13620648       1.58689059
C      -57.28289582      14.36599267       7.19102361      -1.70306771       0.02532484      -0.12557440       0.39401694      -1.18930081      -0.74773803
N      -55.53569148      12.67201550       7.09533738       0.64432687       0.46308520       1.68742529      -2.16732137      -3.26065642      -0.53266201
C      -58.64305359      14.78040808       6.89651715      -0.21918863       0.28798867       1.21551005       1.66733584      -0.67952815      -0.51920406
N      -56.32691407      15.36599185       7.47292080      -0.29304991       0.32431537      -1.06097549      -0.21017721       2.12451400       1.91740612
N      -59.05579732      15.98506498       7.03812945       1.19698947       0.91896661      -0.37755531      -2.54650469       3.62181816       0.53798085
N      -60.77219509      14.47002756       5.68608461      -0.01420438       0.06292742       2.15259177       1.92165108       0.76140858      -0.21978495
O      -56.51978519      10.33904647       7.28259719      -0.87982651       1.14272282      -0.51072192       2.11694802      -0.29494527       0.27202497
O      -58.27609350       9.70487091       6.39042467      -1.33672508       0.95689455      -0.06316116      -1.44185722       0.22504928      -1.55272456
O      -56.75611042      16.34313300       8.17307680       0.09844143      -0.02942346       0.48776002       1.15792787      -1.41166068      -1.67771642
O      -55.14191617      15.30842734       7.10794127      -0.17691979       0.13725437       1.07213009      -1.18848794      -0.21474976       0.35791302
O      -60.99028130      14.28604265       4.49938562      -0.77046028      -1.11588062       0.13909454      -0.82661637      -0.30407158       0.93008574
O      -61.40350050      15.25924889       6.42165141       0.52299340       0.59828190      -0.62557887      -0.20247558      -1.40792863      -1.09633079
H      -60.86011770      12.05425928       5.44470055      -0.12725393       0.28777682       0.23359892       1.76598499      -1.17792814      -0.37449301
H      -59.71745764      10.73946187       5.66973293      -0.08051242       0.28559479       0.05408278      -0.15766670      -0.90980467      -0.30833865
H      -54.88595687      13.33804303       7.34074755      -0.20648732      -0.16130208      -0.20217873       1.73826768       1.17621697       0.47843276