1296
Lattice="-35.40314983035985 14.040102048984494 55.042787226389954 0.0 17.124377041473323 0.6513912484784578 0.0 0.0 -31.461951295205434" Properties=species:S:1:pos:R:3:momenta:R:3:forces:R:3 energy=-1487794.5399053795 free_energy=-1487794.5399053795 stress="0.00473291323065087 -0.0002741289142785612 0.0003441676370579411 -0.0002741289142785612 0.0042044267531465744 -0.0013069186713171792 0.0003441676370579411 -0.0013069186713171792 0.002243496271204985" pbc="T T T"
C      -23.80165125      22.98612562      32.72853803       0.44978132       0.21658583       2.33015038       2.64538204      -2.14180878       0.35203158
C      -22.96753187      24.06516800      32.25817465       0.53361630      -0.15361469       1.58801538      -1.37567309       1.37295324       0.04389047
C      -25.12297191      22.81861983      32.33773458       0.11820709       0.19683081       0.01076868      -2.85207192       1.26764840      -0.59402850
N      -23.18579167      22.02590301      33.44092556       1.01227995       0.55924641      -0.77935037       0.30299164      -0.43749985       0.20968590
C      -23.68180357      42.33360884      32.33361542       0.54657463       0.72998077      -2.25447818       0.71218810       0.42192607       0.08164457
N      -21.60824618      24.19388061      32.71180783      -0.05164979       0.00069828       1.22085465       1.34054372       0.80041532       1.30051955
C      -25.06416959      42.13270413      31.93161452       0.01568096       0.57011146       0.45277509      -0.16708930       0.84713985       0.41239225
N      -23.05950357      43.53525438      32.21636287      -0.03347011       0.92338837      -0.11276731      -0.33499857      -0.94069686      -0.50175428
C      -25.88251317      23.89670842      31.70399886       0.32207380       0.64493378      -0.60920283      -0.47351848      -1.36685176      -0.74183658
N      -25.75488441      43.30763619      31.43005734       0.67335799      -0.36963436      -0.38896929      -1.15677588      -0.36286852       1.29227070
N      -27.23234009      23.74970980      31.43684739       1.15536022       0.80873221       1.37091720       3.45581649      -3.66046564       2.08100342
N      -25.88628417      21.65594481      32.77413139       0.23577195       1.45147701       0.11974875      -0.05760566       0.12140473       0.72648196
O      -21.05462019      25.34631445      32.75057883      -0.77086719       1.19077057      -0.58679289      -1.09022142      -2.65576443      -0.54738931
O      -20.98258080      23.19071822      33.14985810      -0.64218879      -0.53274099      -1.19385798      -0.76958725       1.99811748      -1.17338395
O      -26.99171551      43.27787207      -0.00182434       1.43157956      -0.06873895      -0.88057061       0.77729957       0.32364096      -0.21745929
O      -25.16722532      44.34081086      31.13125523      -1.47088088       0.25329433      -1.33227960       0.05127717      -0.20784869      -0.81440280
O      -25.57413061      21.01356448      33.73778075       0.22359421      -0.23667388       0.06268664       1.96206886      -0.33754087       1.69314731
O      -26.92317376      21.32307177      32.23657112       0.93375089      -0.43125703      -0.15368594      -1.10313006       0.62860534      -2.13488959
H      -23.54438121      21.16151194      33.78001238       0.06130666      -0.26122307       0.11852407      -1.37774130       0.09072380      -0.15387917
H      -22.18839857      21.97316878      33.46175468       0.12024589      -0.13126497      -0.05106922       0.28130363       0.92177423      -0.23112648
H      -23.51985694      44.32825051      31.71194408      -0.22558529       0.12809128       0.09424742       0.56794772      -1.23495300       0.98148400
H      -22.08442002      43.48903887      32.55506987      -0.24000812       0.21159077      -0.23857023      -0.71069894       0.43136933      -0.30156880
H      -27.69993024      22.86446207      31.73841158      -0.54213153      -0.08639025       0.20395229       0.99193449       1.29294093      -0.55245663
H      -27.75250973      24.50753951      -0.23023411      -0.34910931      -0.37850270       0.08390450      -1.57207571       2.83765750      -1.03531496
C      -37.08968562      21.05393133      19.39662805       0.98145806      -0.38237994      -1.02363140      -1.24455507       0.83153488       1.92665344
C      -36.90586192      21.10612002      20.84752781       0.29123925       0.85275037      -0.76204848      -2.09472341       0.04271641      -1.12097020
C      -38.37621481      21.61017575      18.90744245       0.09208956       1.32654334      -0.55307327      -0.12169960       1.13006264       2.23769351
N      -36.18601513      20.58266419      18.58366554       0.72104325       1.15380875       1.02599130      -0.38309149      -0.53834070      -2.24054121
C      -38.00492763      21.59008073      21.70077577      -1.42115722      -0.21976955       0.57491207       1.96397911      -0.60361077       1.12565666
N      -35.81350735      20.34405330      21.34373850       0.36228879       0.17372442      -0.33814720      -0.44418987       0.95658071      -0.01807526
C      -39.23209063      22.15987711      21.21503856      -1.28753181      -0.68966446      -1.08491417       3.26997520      -2.00257568      -2.08314169
N      -37.76249710      21.53091374      23.01913642       0.45264844      -0.34155671      -0.12752104       0.10072816      -0.50087342      -2.60599596
C      -39.38053515      22.31067379      19.76808912      -0.11404371      -0.46878333      -0.68701384       0.85121805      -1.72554626       1.75206051
N      -40.11449483      22.70119353      22.09179599      -0.69666764       0.18288828       0.01411496       0.53835814       1.84845122      -0.89178776
N      -40.44194590      22.89724698      19.28348568      -0.02584413      -0.24824412       0.19666770      -1.52048188       0.90740837       1.17337799
N      -38.58836559      21.65259794      17.54886844       0.21054183       1.11360469       0.98344980       0.46410253      -0.44123086       0.44674128
O      -35.65750207      20.16575765      22.55304702      -0.53832404      -1.19067548       0.14738124       0.31001115      -0.11110491      -0.28044558
O      -35.03017933      19.90188858      20.51060051      -0.66113725       1.38095149       1.19195581       0.99311071      -0.58593024       1.15626354
O      -39.91100239      22.74912398      23.30763004       0.31341234       0.27301648       0.22117004      -1.08149911       0.01871355       0.17208513
O      -41.00253333      23.32135410      21.52279371      -0.00487667      -0.50970574       0.37467826      -1.98974332       0.64833466       2.19743902
O      -37.93486629      20.85848331      16.87361375      -0.29192911      -0.61926584       0.09912393      -0.37180835      -0.20269722      -1.71236986
O      -39.39230149      22.41809759      17.05473223      -0.69162657      -1.24421795      -0.06725698      -0.44735263       0.32648787      -1.17788836
H      -36.59311327      20.50845311      17.61208423       0.08563159      -0.25450197      -0.45068062       1.30789444      -0.03525165       1.43079724
H      -35.29939029      20.14536977      18.91477178      -0.39547326       0.06683688      -0.29579496      -1.26467546       0.76699346      -0.27997812
H      -38.37542581      21.98949915      23.60688238       0.01839535      -0.40208840       0.00471141      -1.11453490       0.77236630       1.46170917
H      -36.83175458      21.34577715      23.26706460       0.16074817       0.07975837      -0.21005489       0.69594036      -0.42708506       0.60890952
H      -40.41664810      22.86660676      18.30489452      -0.34554050       0.31892729       0.22823182      -0.66943285       0.42707760      -1.77069617
H      -41.25396212      23.32270583      19.88999170      -0.21972529      -0.15496327      -0.29339138       2.70488247      -1.47165806      -1.46193053
C      -34.66969140      11.60374386       7.41115914       0.17991522       1.27321549      -0.95463308      -0.20416442       2.47882299      -1.36425952
C      -34.66083667      12.89770584       6.74189985      -1.54324999      -0.25038317       0.10833386       3.68198719      -1.17666113      -0.77478630
C      -36.01147222      11.13186667       7.66304920      -0.95471579      -0.36846994      -0.60216061       3.21193458      -0.74126270       0.68237937
N      -33.48350100      11.06034940       7.65165538       0.44624675      -0.23758482      -0.48603220      -2.88110065       0.34942063       0.19082653
C      -35.71439360      30.93509142       7.20806523      -0.77439107       1.59460151      -0.49241175       0.16634417      -0.25637973       0.21776181
N      -33.32631451      13.28494086       6.01403768      -0.60569270      -1.38039811       0.81586635      -1.42640335       1.12995024      -0.35323350
C      -36.95239080      30.37480080       7.46049137      -1.06909515      -0.52767426       0.56610516      -0.99005548       0.18407142       0.24576826
N      -35.52595326      32.21193172       6.83341706       1.26433470      -1.06358281      -0.67981675      -0.43851263       1.18356202      -1.27843881
C      -37.09872621      11.92654758       7.29659288       0.28892818       0.90541905       0.47840205      -1.99845368       0.80572281      -0.85938706
N      -38.22636831      31.11127658       7.15345197      -1.11616242       0.08983815       0.41420237       3.19280761       2.04476827       2.86464300
N      -38.31868229      11.43236508       7.39309132      -0.91679693       0.01888564       0.01613751      -0.39662390       0.64369442       0.35390550
N      -36.15731156       9.93310208       8.39083946      -1.48562315       0.09375102      -1.30171480      -2.16632782      -0.65731590       1.15551706
O      -33.49476748      14.26886087       5.26863268       0.43682478       0.91974247      -1.47356758       1.42066646      -1.42093362       0.03719603
O      -32.22269124      12.74030793       6.07520490      -0.22611702       0.13140192      -0.51806756      -1.54434854       0.28220854       0.54276577
O      -39.05515956      30.52345669     -24.89133219      -1.12387626      -0.35634752       2.39353285      -2.63165646      -1.18160117      -2.13617018
O      -38.37973951      32.26457022       7.60372212      -0.55840533      -0.73537412       1.31473685       0.55096658      -0.94182292      -0.79587516
O      -35.18606960       9.39244426       8.95580381       0.13853235       0.54992039      -0.47888690      -2.21761543       0.61356026      -1.41893501
O      -37.40619537       9.52401435       8.50510870       0.66622489      -0.26464421      -0.18678551       4.35803078      -0.85734737       0.73662411
H      -33.49866978      10.22572873       8.13818852      -0.17738738      -0.03587510      -0.12647452       0.33346214      -1.80008528       1.03474367
H      -32.69029354      11.60762730       7.48623340      -0.11075656      -0.28017624       0.17597823       1.46558455       0.31442213      -0.38998874
H      -36.31754081      32.83931885       7.08272023       0.32910270      -0.03265052      -0.15452301       0.91467879      -0.79209179      -1.02825660
H      -34.84044857      32.28250642       5.99102159      -0.20390462       0.30815143      -0.00484139      -1.70144565       0.47049734       2.46534492
H      -38.30660170      10.57043202       7.94150633       0.35941718       0.08630490       0.13885813      -0.83452852       0.11745698      -0.56133006
H      -39.08778932      12.01841774     -24.36941026       0.08356508       0.28751887       0.03519957       0.08224735      -0.89050675       0.26626181
C      -22.90073059      -1.30080374      31.35143498       0.66591459      -0.35689417      -0.44330945      -0.64178072       0.52131962      -0.01141325
C      -22.90985063      -0.81916953      32.69556669       0.66179134      -0.05908571      -1.30114380      -0.29505779       2.77687042      -2.91985100
C      -22.53846980      -2.71835648      31.22880200       0.43863202      -0.61513413       1.00588005      -1.30334158       3.24782960      -3.17783904
N      -23.33912921      -0.41480525      30.36620445      -0.27632197      -1.03944173       0.86748415       0.81770684      -3.43044607      -0.63818934
C      -22.31994105      -1.52307353      33.68987740       1.70717041      -0.40850257       0.20089511      -0.07568730       0.45526805       3.63303708
N      -23.16001022       0.65579593      32.91052865       0.27057617      -0.43852027       0.00803519      -0.89135273       1.90798188       0.29630756
C      -21.99135732      -2.83248835      33.54546900      -0.52643747       1.14231787      -0.44700624       0.82205167      -0.91881931      -0.31728089
N      -22.22333740      -0.99155699      34.93777394       1.31068869       0.42273361       0.09156824      -1.31311916       0.55668331      -0.65998296
C      -22.12588015      -3.45652210      32.30420519      -0.44912337       1.10385134       0.25461115       0.92762304      -1.87603477       1.29707017
N      -21.44159684      -3.63119157      34.66090544       0.44192293       1.79501212      -0.77532071       0.43754814       2.18648349      -1.28343496
N      -21.73386009      -4.73400927      32.14792949      -0.06528256      -0.40384929      -2.43705259      -0.24525667      -0.80298165       1.59958194
N      -22.61790884      -3.24783598      29.84708028       0.87854686       0.90143108       1.61714766      -0.18598866       0.79147839       0.45309150
O      -23.49206789       1.17437320      33.96557286      -0.39785962       0.20799614       1.25903009      -0.19842393      -2.36504798       2.92224922
O      -23.10308344       1.51151772      32.04517798       1.62910842       0.46165265      -1.23473515       1.05631457      -0.87284751      -3.29502861
O      -21.91141620      -4.72058543      34.68673721       0.61930544      -0.60444400      -0.42568760      -0.33431004      -2.19612271       1.48178524
O      -20.55446017      -3.19289568      35.38733057      -0.35343351       1.47771253      -0.45547977      -0.66595962      -0.22725577      -0.21769219
O      -22.41102093      -4.43347378      29.61422363      -0.83232917      -0.60767304       2.06354758       0.00792302       0.19047936      -0.01264398
O      -22.90014074      -2.43833569      28.96268195       2.15360236      -0.01577415       0.64057424       0.24418653      -1.18495398       0.19126671
H      -23.21373077      -0.66444686      29.38914756      -0.11137883       0.18316590      -0.00330373      -0.14396171      -0.56239795       0.80000244
H      -23.16721943       0.52084466      30.52726585      -0.17650663      -0.12533568       0.35688615       0.08948352       1.94838876       1.00459253
H      -21.40167806      -1.08106883      35.41759367      -0.09623301       0.13852075       0.44457122       2.38820053      -1.24317448       1.16909856
H      -22.49012649      -0.04764442      35.04551900      -0.44532089       0.43130659      -0.33898460      -0.78183568       0.80129749      -0.04766360
H      -21.70870661      -5.00729532      31.21534894      -0.04078368       0.06743242       0.38049576      -0.14971375      -0.85066129      -1.48311602
H      -22.04940636      -5.44265563      32.83778493      -0.22658445       0.19977659       0.17857572       0.72724158       1.19575380      -0.84008903
C      -20.70186938      -0.92646404       9.28715868      -0.57071369      -0.40407271       0.89925080       2.86826926      -1.72970627       2.66810865
C      -19.62451799      -1.41892765      10.19340824      -0.06052741       1.82978265       1.02146230      -0.30163965       1.28037593      -0.63217751
C      -21.03093748       0.38529939       9.43246863      -0.04202014       0.49297670      -0.09357265      -1.21731394       3.03817259       1.08806793
N      -21.19006236      -1.71880607       8.40166299       0.02451756      -0.26313709      -0.34251357      -1.24543416      -2.34140502      -3.12970056
C      -19.05603142      16.56230817      11.85523523       0.24783280      -0.32051830       0.15381242       1.52857369      -2.28241516       0.11001498
N      -18.91971299      -2.59803847       9.77160122      -0.89832733      -0.33324419       0.55717440      -1.31992935      -0.60416787      -0.57241073
C      -19.58621728      17.84958655      12.07166785       0.13479637       0.50689476      -1.25348084      -1.19685973       0.32005017      -0.32136081
N      -18.02664064      16.10221850      12.60456366      -0.92684461      -0.72086728      -0.11536762      -1.54439041       1.30101052      -1.16827155
C      -20.52840031       1.24178434      10.44869795      -0.13842984      -1.06245737       0.59139573       1.27846731      -2.25500501       0.23579474
N      -19.36412307      18.50686222      13.29026126       0.55926166       0.03908315       0.09506946       2.36015742       1.27983763       2.84726214
N      -20.87757556       2.45900483      10.48302497      -1.03793102       0.22454085      -0.73060705      -2.55615328       5.53776853       0.88030186
N      -22.21399438       0.93117227       8.74234820       0.13646924       0.15297996      -0.12291081       4.99045504       0.49293330      -0.10369942
O      -17.71193216      -2.65439353       9.79752793       0.92919138       1.28144093      -0.56234995       0.38331385       0.07197098       0.69766610
O      -19.60383236      -3.54818472       9.33204144      -0.05036229      -0.67087483       0.33705703       0.18377463       0.73064830       0.75337659
O      -18.46023753      18.03621247     -17.40566382       0.04401949      -2.07574790       0.20253443      -1.43898766       0.71415157      -1.04573865
O      -19.91124273      19.56119625      13.67346291      -1.27357967      -0.79137288       0.46753125      -0.30601136      -1.29880569      -1.67414299
O      -22.94882612       0.09539572       8.39067968      -1.39545995      -0.32162244      -1.37397845      -4.29257225      -1.77466922      -1.52288603
O      -22.20353180       2.10045803       8.37971636      -0.77053663      -1.68900706       1.64340094      -1.19244980       0.39788037      -0.00921758
H      -21.81274698      -1.25167617       7.71629440      -0.29601329       0.04162345      -0.02583699       0.49619450      -1.23249041       0.78962238
H      -20.87678489      -2.74517660       8.30402656      -0.31503935       0.15156183      -0.17054788      -0.44617022       2.48976329       0.39030194
H      -17.55584650      16.73211875      13.19776403       0.03520429       0.26634800       0.24725836       0.02775198       0.76099547       0.73167412
H      -17.64302775      15.21344091      12.58972237      -0.56970058       0.20040874      -0.21709400       0.05062932      -1.75233391      -0.65048899
H      -21.58108033       2.91301168       9.84358473       0.24392848      -0.25811823      -0.10240567       1.40811952      -1.53119651       0.49288389
H      -20.72649023       3.06576011     -20.16226131       0.00539971      -0.13262685       0.17556871       0.61847353      -1.04814612      -0.26060778
C      -10.42542652       8.04826179      -1.71517541      -0.42545297      -0.49399737       0.55961957      -1.40911625      -2.80660236      -4.28847525
C      -10.06303841       8.40121954      -3.11501629      -0.08495315      -0.99048130      -0.14339316       2.93323184       2.96852689       3.09990574
C       -9.88983162       8.73436700      -0.66081846       0.32475898       0.91229129      -0.10743528      -0.23620886       2.94856887       1.79355645
N      -11.23959357       6.96500661      -1.58767546      -1.01092914       1.79021767      -1.08611982      -0.54950953      -0.46029223       1.69887079
C       -8.91368251       9.38772154      -3.09162054       0.01199643       0.17047782      -0.71298644      -1.16998284      -1.56813412      -1.80995878
N      -10.55626390       7.89312106      -4.33347099      -0.34078601      -0.12196760      -2.08460409      -0.34431976      -0.06881199       2.27342612
C       -8.68885268      10.30659036      -2.06283384      -0.63035000       1.02170541      -0.27537643      -0.63962538      -0.49852116       1.28946993
N       -8.03350916       9.39616813      -4.07586982      -1.01302939       0.79728351      -0.25692035      -0.98986396      -1.62963526      -1.01611716
C       -9.22209361      10.00986327      -0.75105690      -0.77903242       0.04891546       1.17274074       1.37875089       1.78367901       0.77972176
N       -7.74775051      11.35642351      -2.23370590      -0.72742880       0.33629364      -0.98923319       0.01714269       0.73770977      -0.15101103
N       -8.92624808      10.86890192       0.32026400       0.12673388       0.50556947      -0.14842595      -0.11009979      -1.53726575      -0.86813693
N      -10.43421334       8.42357330       0.65255558      -0.68858886      -0.24543256       0.82701780       0.80026554       0.81048155       1.45568260
O      -10.21843631       8.37228212      -5.38741758      -0.20087546       0.04624230       0.94161484       0.46539031       0.29568621      -1.07577580
O      -11.39148854       6.99887446      -4.22801758      -0.00550399       0.20202741       0.58128391      -0.63026801      -0.76420542      -0.49816478
O       -7.00907463      11.53034159      -3.19953322      -0.05769665      -0.19383508       0.93013608      -0.02687963      -1.16138631      -1.34069290
O       -7.71181906      12.19855889      -1.38095083       1.14872919       0.43400441      -0.07603951       0.09049013       1.23847314       2.02754770
O      -10.94256497       9.30641790       1.36750704       0.65926865       0.22824031       1.18278109       0.39411420      -1.10429725      -1.18226666
O      -10.19713914       7.29906962       1.04426452       0.68885356       0.69645288      -1.54717454      -0.86216279      -0.52983557       0.07209857
H      -11.35613890       6.48880889      -0.63567000       0.38149958       0.13239181      -0.08058169       0.11154131       1.25849055      -2.28150968
H      -11.82004185       6.67924666      -2.41391744       0.24011383      -0.17271148       0.14353232       1.26240111       0.35698250       1.27156677
H       -7.47026173      10.19444111      -4.16650373      -0.16113103       0.33556540      -0.64398609       0.78784426       1.00475405      -0.36603966
H       -8.09917914       8.70667769      -4.81765864       0.04809895       0.02871439      -0.27618524      -0.18085700       0.38625467       0.08760897
H       -9.21222712      10.56708373       1.25579758       0.19862230      -0.39559367       0.11654149       0.00031572       0.35402387      -0.85770376
H       -8.26512925      11.70553863       0.22010211       0.42384602      -0.01712801      -0.14213600      -1.66242995      -1.98750975      -0.18972403
C      -16.36028052      33.86316577      41.14548910       1.40372197      -0.08371165      -0.06500644      -0.70540882      -2.86165623      -2.47733931
C      -16.32579551      32.67765420      40.25924299       0.65907537      -0.75987191      -0.20341474      -0.95760991       0.45915974      -0.16496332
C      -17.22747005      34.92461863      40.79018134      -0.53613917      -0.46757024       0.65701006       0.00194501       1.51756920       1.27678714
N      -15.72306764      33.82913923      42.24386326      -0.29692943      -0.32679592       0.12758768       2.21291676       1.02226922       4.06603364
C      -17.13046673      32.67097897      39.07392800      -0.35366915       0.02138758       0.00742111       1.34757378       0.68886732      -1.03580976
N      -15.51619392      31.53981716      40.52807006       0.65038788      -0.01509769       0.78656130       0.46628600      -0.75030594      -0.51897030
C      -17.92014707      33.83492733      38.77642251       1.54049625      -0.19140218      -0.63546225      -2.24018564      -0.62308609      -0.93497397
N      -16.89998460      31.71649947      38.17820429      -0.65356221      -0.71757304       0.71078308      -0.08315883      -0.20618115       1.56673742
C      -18.10429968      34.94856821      39.64272274      -0.50029016       0.79067325       0.33856099       1.10073462       0.32864869      -0.88338625
N      -18.69837950      33.80811866      37.48711669      -1.19273644      -0.15062153       2.63057668      -0.27071836       2.35432550       0.92945591
N      -18.83800317      35.99844662      39.20442304      -0.59910045      -1.22806326      -0.39377754       0.71797233      -2.37220338       0.83754575
N      -17.26663242      36.03396885      41.79477431       1.15339968       0.86401411       0.63475934      -0.49988797      -1.45014229      -1.85631189
O      -15.66472752      30.43422990      39.88850079      -2.73346182       0.16526567       1.01934743       0.08011223       1.87960657       1.21739162
O      -14.62956890      31.62526932      41.34962738      -0.80454558       0.06700668       0.62382730       0.01718633       0.08178772       0.67055178
O      -18.27130277      33.08957631       5.15864020       0.24027178      -1.39690456      -0.44082072      -0.09942032      -0.77124977      -1.13508054
O      -19.67107977      34.58504964      37.22374030       0.77023224      -1.23284283       0.25919042       1.53585203      -1.59857423       1.14715933
O      -18.24792499      36.72986216      41.61843076      -0.07808780      -0.37187052      -0.31438520       0.29531775       1.26703299       1.11536096
O      -16.41857428      36.18523118      42.67735858      -1.17729832       0.41704612       0.40120407      -1.06412163       0.51015610      -0.67366739
H      -15.71968050      34.62921381      42.89762530       0.36422475       0.04329917       0.26822530      -0.41046306      -0.40228855      -1.03863374
H      -15.14550000      33.08835018      42.62953743       0.15337375      -0.03686575       0.18868630      -0.41817405      -0.33847762      -1.29538154
H      -17.43529211      31.70574221      37.33902710      -0.37825799      -0.03060131       0.40606506      -0.04550809      -0.22947961      -0.32067721
H      -16.38617179      30.92561971      38.63840505       0.18378534       0.26495635      -0.34247091      -0.65969200       0.34498789      -1.34533738
H      -18.80377597      36.83628979      39.68216794      -0.05472300       0.01604682       0.02569812      -0.03902620       1.47017163       1.26014299
H      -19.59177580      35.84842816       7.09988802      -0.05506223       0.21264109      -0.01704800       0.19904778      -0.13942987      -0.46726865
C      -44.98012133      37.53129268      41.28528284       0.71462223       0.61922849      -0.01044276       2.05491000      -4.16564684      -3.37561421
C      -45.28972760      37.23615916      39.90055797      -0.22060695      -1.01929273       0.04017567      -0.28729593       1.47897988      -0.53049339
C      -44.16794417      36.49909152      41.97100710       0.33092656       0.26813311       0.66680680      -1.91904998       3.51886774       0.14073052
N      -45.30511429      38.62334447      41.85320065       0.12888538       2.28684260      -0.46613686      -0.05273735       0.30400355       2.54423217
C      -44.70079834      36.19606056      39.16529971       0.33538797      -0.29617458       0.91875741       1.00653035      -1.18334088      -0.19471874
N      -45.92868472      38.29384750      39.04638151      -0.11658334       0.32302998      -2.05632963      -0.27956063      -0.26312038       4.79438488
C      -43.91066449      35.25262857      39.91293696      -0.37527658       0.14021065      -0.47827065      -0.13908985       0.36996751      -1.32504833
N      -44.94470732      36.09915751      37.84470256       0.16668331      -1.14585093      -0.92708988      -1.38739614       1.04604755       0.51053333
C      -43.81886252      35.31435226      41.32638441      -0.38300693       0.03103291      -0.14905630       0.53212970      -2.86330703       0.68624648
N      -43.02317576      34.37527156      39.10339389      -0.75315256       0.95763061       1.10370099      -1.95814541       2.81770293       1.18804614
N      -43.43447645      34.18554406      42.02728346       1.98805274       1.53360058       1.43308104      -0.06611846       2.23094278       1.10556401
N      -43.77886009      36.79175115      43.36490381       0.30505035       1.08878167      -0.55906378      -0.70219650      -5.25727380      -3.96269419
O      -46.72550037      39.01546524      39.69089019      -0.39066780      -0.14901328       0.87074073       0.33807023      -0.06040636      -1.46131351
O      -45.62041116      38.44338533      37.90375940      -1.35307057      -0.65056549      -0.69847243      -0.37012253       1.17957031      -1.43809114
O      -42.72939125      34.83177022      38.01739945      -0.17350977      -0.01537872       0.20104371       0.68456422      -0.73336718      -0.83958429
O      -42.61904224      33.35873752      39.57613066       0.63971928       0.29201414       0.37451585       0.96451938      -2.03410097       0.46427014
O      -43.58810971      37.88041075      43.76067767      -1.06095922      -1.09868641       0.54232838       0.23866425       2.77218288       1.71648681
O      -43.61409572      35.73047165      43.96304930       0.18152805       0.37854289      -0.12036242       0.39169244       0.98163599       2.38895138
H      -45.04852760      38.54562516      42.81313600      -0.01691962       0.12447350      -0.45477071      -0.00675790       1.59594433       0.61642906
H      -45.67633699      39.40709792      41.41045204       0.29055714      -0.06179856       0.27789786      -0.89797096       1.21167952      -0.57199048
H      -44.49193647      35.42702947      37.26054869      -0.24058483      -0.16811827      -0.22131324       0.11967876      -0.01629772       0.05640580