1296
Lattice="-50.534710375259515 -27.59159693923706 40.99736800956465 0.0 18.65930637883708 -0.5042031186448893 0.0 0.0 -23.622881191568172" Properties=species:S:1:pos:R:3:momenta:R:3:forces:R:3 energy=-1487776.6513908033 free_energy=-1487776.6513908033 stress="0.0038464163870270346 -0.0007918107372012077 0.0017370973179912997 -0.0007918107372012077 0.0032467271993947963 0.0002530500345409158 0.0017370973179912997 0.0002530500345409158 0.0045823035218233825" pbc="T T T"
C      -27.93469923     -26.66790363      25.53689811      -0.24201670       0.30495703       0.20380225      -0.36025127      -3.37347026      -1.52082428
C      -27.87459776     -26.42281219      26.91033077       0.94992346      -0.23753819      -0.73908475      -0.48541869       1.17249493       0.98650108
C      -28.33854987     -27.99915319      25.04893951       0.33890522       0.38068261       0.11768278       0.35495626       2.41835592       2.11803751
N      -27.55051089     -25.84664202      24.59739797      -0.42807832       0.87993455      -0.27007694       0.24119061       1.38774175       1.09973476
C      -28.24026804      -8.74934112      27.39124097      -0.28026498      -1.10463556      -0.58964982      -0.30688144       0.46482037      -1.73752763
N      -27.61427612     -25.02999693      27.30071015      -0.01788602      -0.08444847      -0.30230286       0.69179253      -1.02571246      -0.24202928
C      -28.72330245      -9.99605707      26.89713673       0.66244261       2.06937471      -1.22781282       0.26045309       0.55513922       1.70456062
N      -28.18782490      -8.47637991      28.66289800      -1.48861163      -1.13294761       1.04100376       0.85233158       1.69845203       0.79840921
C      -28.78866702     -28.95741671      26.01576124      -0.19246793      -0.87075583       1.10625430       1.01364696      -0.97046628      -3.35711897
N      -29.09391616     -10.92994627      27.92488817       0.77845821       0.80587225       0.13600709      -1.50106548      -2.34742417      -4.00901792
N      -29.07142090     -30.16673859      25.50725098       0.47134406      -0.01290715      -1.03442108      -0.77414434       0.50440844       1.90097625
N      -28.44478762     -28.13066274      23.61297117       0.65503742       0.73453120       0.29397966      -0.23719945      -1.04502269       1.46447298
O      -27.85353395     -24.13929541      26.49513269       1.08162912      -0.21427187       0.29081523       0.43538556      -0.34229931       0.88083304
O      -27.07099437     -24.82689802      28.40244903      -0.07947701      -0.42756206      -1.08215868      -0.75401906       0.09513061      -0.54983280
O      -29.35388831     -12.08767729       3.80505307       0.49834765       1.26406064      -0.10101515       0.44152859       1.70776334       2.67549270
O      -29.32024695     -10.61855810      29.06717988       1.15295309      -0.39575437      -0.99734354       0.12889905      -0.89693586       0.26999975
O      -29.36527336     -28.78927027      23.18778360       0.07373233      -1.31481939      -0.07792985      -1.04881838      -1.02142938      -0.47831566
O      -27.62991684     -27.63177565      22.86403958      -1.83776906      -0.13772772      -2.03453609       0.55894744       0.37728490      -0.57604877
H      -27.38833783     -26.15652551      23.68644212      -0.11159320      -0.25226843       0.27572033       0.09532030      -0.35769663      -1.36063956
H      -27.50252025     -24.90347975      24.83220482      -0.01446604       0.44367832       0.11745051       0.30293354       1.56352236       0.18186008
H      -28.55384887      -9.08925648      29.36685743      -0.55276414       0.29040232      -0.22285732       0.00934735      -0.14238589      -0.03339258
H      -27.73940124      -7.59264868      28.90271752       0.11467390      -0.07594712      -0.17420476      -0.16240644      -0.33808750       0.06315573
H      -28.98822256     -30.48250630      24.57931196      -0.01867004      -0.24781679       0.28581605       0.17620199       0.58005064      -1.05086159
H      -29.40483989     -30.81003279       2.55476174      -0.21458596       0.05755323      -0.01404142      -0.10883861      -0.74234795       0.51871680
C      -56.18086632     -28.13596016       7.32031469      -1.59705842      -0.45628683       0.26267249       1.05339221      -1.99332478      -0.28846105
C      -56.48180694     -27.42024689       6.06896324       0.58516445      -0.05791773      -0.43036100       0.38039711      -0.46912794       2.08925123
C      -56.19581668     -27.53034883       8.64865190      -0.07958424      -0.47596513       0.14825762      -0.04548425       3.72523451      -0.99670567
N      -55.82711916     -29.44166198       7.19186173       0.32129478       0.23404321      -0.54071167      -0.97109207       1.17163895       0.75089070
C      -56.66805131     -25.96039215       6.05518067       0.04264074       0.57561262       0.22583713      -0.87904210      -0.85868081      -0.93496899
N      -56.68129798     -28.22707761       4.90168336       0.27623233      -0.24602738       1.46615428      -0.81336027       0.26817152       0.13785056
C      -56.92721743     -25.34035605       7.32661267       0.86922396       1.05248698       0.38849590       0.99258550      -1.27640700       1.55112151
N      -56.67699590     -25.38628244       4.83706532      -0.22474099      -1.82311578       0.62219442       0.28248612       0.03967070       2.42888883
C      -56.62163061     -26.07596002       8.66438882       0.40633074       0.31003838       0.27649294      -0.13835385       0.17971445      -1.81091313
N      -57.50498048     -23.99239295       7.34177756       0.50321122       0.31944398      -1.91269402      -0.37021397      -0.94646629       1.12779225
N      -56.78146325     -25.32508967       9.76694703       0.07552162      -1.00726216      -0.02328742       1.42035965      -3.85767145       0.02397289
N      -55.54830656     -28.12666291       9.82971478      -0.59794813      -0.19248755      -0.27271307      -2.35030975      -1.03307159      -1.45288434
O      -56.49386478     -29.48273174       4.87371202      -0.17118777      -0.94520615       0.76812604      -0.64971007       2.30994231      -0.90439276
O      -57.18230980     -27.62962759       3.94118860      -0.14539982      -0.22337609       0.31973173       0.48726119      -1.40863388      -0.47105995
O      -58.25018624     -23.73230194       6.36711089       1.31497203       0.68518267      -0.75208606       1.83335857       0.80151682       2.56462946
O      -57.31329462     -23.30024600       8.41153310      -0.09054321      -0.89917186       0.22021175      -1.03298965      -0.60647118      -3.94435166
O      -55.77520414     -27.68270481      10.94221826      -0.41564117       1.00650692       0.99582539       0.15060463       1.45387299       0.23982018
O      -55.01628044     -29.23621012       9.70693808      -1.50075952      -0.85197847       1.56594093       0.59086585       0.27218804      -0.37340549
H      -56.12065275     -29.86862625       6.24289608       0.49382736       0.23321410       0.09274832       1.19212951       0.02409513       2.29757459
H      -55.62198452     -29.91673865       8.10377337       0.08809341      -0.39206951       0.11448360      -0.36012040       0.33098883      -1.64309710
H      -56.76645445     -24.41009117       4.60808911      -0.24728455      -0.21453957       0.33962668       0.08545389      -0.07339686       0.53979292
H      -56.53305201     -26.04257989       4.10705526      -0.21633678      -0.06547579       0.01232078      -0.17328920       0.10651457      -0.71648520
H      -56.42462077     -25.77848139      10.60775757       0.14091789       0.10944398      -0.50962408      -0.36367072       0.27086228      -0.24239133
H      -56.65915550     -24.36945703       9.61778302       0.12044613      -0.29776817       0.16734621      -0.41057603       1.78420986       0.09162162
C      -45.99692035     -34.44699522      -2.39053925       0.22423457       1.22012901       1.12580972      -0.30394113      -2.56797197       2.55755980
C      -46.94681222     -34.90550050      -3.36110675      -0.56240930       0.49366849       0.58885064      -0.85462481       0.49993450      -0.12352625
C      -45.98241830     -35.30477843      -1.12231760      -0.30858627       1.12947103      -0.42721115      -1.05649425       0.96285546      -0.22798644
N      -45.18072242     -33.41234428      -2.47282084      -0.20672609      -0.31295617      -0.83528119      -0.62210288       0.39146348      -1.16105510
C      -47.89664027     -17.30444823      -3.59783889       0.81404085      -0.08232725      -0.01637045       0.50198515       1.29378586      -0.26440059
N      -46.97936564     -34.34076653      -4.73050546       0.51803417       0.46998380       1.01322991      -3.59148346      -1.58966238       1.32251889
C      -47.72932723     -18.18195381      -2.54335898      -0.81426615      -0.24921898       0.42162173       0.41660326       1.35369588      -0.59417550
N      -48.90822186     -17.43569696      -4.40153459       1.40794636      -2.85251120       1.90826290      -3.58011171      -4.59146585       0.61930842
C      -46.90297690     -36.42641307      -0.95523988       1.18975977       0.47956969       0.28978452       1.70415248       0.48354962      -2.49810876
N      -48.59409424     -19.36619900      -2.55171779      -1.44162628      -0.21356299      -0.87449823       1.19235285       1.43480810       2.49558248
N      -46.86626373     -37.25328548       0.03163463      -1.49492928       0.14113370      -1.16652658      -0.05222092      -0.94545991       1.50016301
N      -45.28196952     -34.84450987       0.14211131       0.31317176       0.04090203      -0.43469354      -3.51491912      -3.31096826      -1.16405953
O      -48.02094902     -34.34940816      -5.48457040      -0.30598185       2.99357740      -1.25487072       2.90901428       0.51354581       1.76897821
O      -45.91184729     -33.96409449      -5.06414502       0.71825159       0.49975058       1.33774292       2.22499197       1.71825296      -1.92859884
O      -49.81724957     -19.10565144     -26.05503892      -0.66165123       0.05186017      -1.52114915       1.68245890      -2.23702745      -0.55820041
O      -47.95461307     -20.42574282      -2.44827973       0.19175278       0.34527029       0.10718513      -2.38219350       0.76096903      -0.36259217
O      -45.56889201     -35.41389142       1.19979343       1.32362130       0.17192471       0.34382203      -0.07329345      -0.38036088      -0.02974398
O      -44.56253722     -33.93642419       0.11400131      -0.90465085       1.54959637       0.51830501       3.11366761       3.53379426      -0.78562707
H      -44.43206992     -33.22541004      -1.84892875       0.26649235       0.30759347      -0.03472916       0.03004212      -0.23027760       0.86904768
H      -45.27959714     -32.73441167      -3.20720313       0.38947839       0.17221908      -0.11734558       0.06877139      -0.38138803      -0.28218778
H      -49.65153195     -18.21022349      -4.22244324      -0.06254293       0.26486065      -0.02353156       2.18116283       2.26570488      -0.21759138
H      -49.22450930     -16.77784537      -5.02977157      -0.37533768      -0.47390702       0.12752962       0.05342501       1.56905959      -1.46119844
H      -46.48660575     -37.12812121       0.92333191      -0.32976046       0.00350532      -0.30429845       0.90312440       0.93810060       1.02635494
H      -47.29746291     -38.11406747     -23.69796287      -0.11028123      -0.17003950       0.08052010      -0.95191971      -1.44337622      -0.26802472
C      -35.84979692     -20.20248768      37.11857810       0.50291303       0.46069434      -0.10780680       1.51791849      -3.11787122      -2.34480247
C      -34.98486343     -20.31721436      36.00900590       0.32237411       1.10890451      -1.82153405       0.34941772       1.73324764      -0.46361506
C      -35.99539452     -18.97780817      37.69132305       0.88964021      -0.16849554      -0.45420232      -2.59127549       1.59952700       1.86100610
N      -36.42790317     -21.38361015      37.41831865       0.13145134      -0.30961443       0.42803262      -4.65306249       1.86766213       3.15511247
C      -34.22697251     -19.16188234      35.49577397       0.13038614      -1.03280697      -0.18462556      -2.43728623      -2.23991724       1.61299952
N      -35.02450389     -21.56449264      35.27016865      -0.42034293       0.51806934       1.36907443       1.94018480       1.04337821      -3.90879022
C      -34.24327164     -18.00962028      36.26588860      -0.45783028       0.59063149       0.02567876      -0.73325215       1.69677624       1.91918304
N      -33.57060321     -19.27352024      34.40552750       1.07873367      -0.36022290       2.21161935       1.26662312      -1.63658604      -2.42483129
C      -35.17539760     -17.92653965      37.38909533      -0.61352198       0.30158226      -0.00936214       2.24961185       3.14774176      -1.10078061
N      -33.45944954     -16.81600241      35.93811186      -0.02567473       0.02259231       1.38572798       1.16402678       0.90898007      -1.59060302
N      -35.22065563     -16.75620196      38.07996771       0.94596655      -0.03446321      -0.31560551       0.25103970      -1.86036092      -0.35688574
N      -37.07370645     -18.62173082      38.71129301       0.90949057      -0.17637941       0.12290441      -0.73719490      -3.60588352       1.99129353
O      -35.01966115     -21.47996769      33.96219645      -0.26772084       0.93824057       0.90347709      -0.57128408       0.13142753       4.27331763
O      -34.84631072     -22.61703464      35.83149880      -0.48399365      -0.98465372       0.77529062      -0.52470970      -0.42201320       0.10257895
O      -33.25160897     -15.88922861      36.78082438      -0.49907145       0.65965619      -1.87481388      -0.21006407      -2.08658984      -1.92977075
O      -32.97332344     -16.71582680      34.76407080       0.44184477       0.64118452       0.39204739      -0.97677951      -0.54271197       2.83158351
O      -38.22525647     -19.13795157      38.64349135       0.18353407       1.44426899       0.19747498       2.44248239       1.20044727      -0.99630497
O      -36.68128730     -18.13064635      39.78082587       0.55014135      -2.35046623      -0.77062286      -0.33903201       0.29236278      -1.48204671
H      -37.27339417     -21.22981388      38.03685082       0.42150858       0.12912651      -0.13131287       1.41470926      -0.62842641      -0.81243190
H      -36.01881977     -22.28120057      37.51139411      -0.14119017      -0.43045698      -0.16514701       0.65262574      -0.11834359      -0.43074465
H      -32.87213005     -18.58690150      34.30543171       0.13624512       0.05668970      -0.18665520       0.75122214       0.72801482      -1.01139125
H      -33.58173101     -20.17012378      33.90047374       0.03680907       0.31486097       0.24911843      -0.01051462       1.15050135       0.36727015
H      -35.53030981     -16.99160916      39.02270732      -0.41972252      -0.02001931      -0.03036583       0.14516042       1.30345751      -0.14184242
H      -34.46224460     -16.11230737      37.77896074      -0.36180630       0.16191427      -0.08023855      -0.91103992      -0.24565289       1.17046309
C      -13.04477616     -13.49234280       7.08025449       0.30966324       0.66635181      -0.55700639      -1.04060270       2.19223845      -0.37113453
C      -13.24130778     -12.08016786       7.27472043      -0.31111372       0.10741513      -0.80329640       0.76060982       0.08733540      -0.61940725
C      -12.79889771     -13.91557998       5.77511702      -0.60150700       0.58965263      -0.23469838      -0.02471720       1.73537095      -0.90980573
N      -13.41028956     -14.26613266       8.06711780      -0.11219042      -0.14943456       1.00182823      -0.02102367      -2.12735408      -0.66620271
C      -12.94259795       7.54583978       5.74873485       0.15767297       0.56424427       0.40622655      -0.91377485       2.45605929       4.50816405
N      -13.74764085     -11.64977594       8.55098706      -0.25829823       0.29075994       0.32651558      -0.07468443       1.84484912       3.22527843
C      -12.61391093       7.12237746       4.50722504      -1.05184493       0.13337112       0.25200904      -0.70367775       0.83717443      -2.02613621
N      -13.00063870       8.90454223       6.11373836      -0.84383196      -0.16969432       0.41267574      -0.88051141      -3.58531834       0.83500941
C      -12.68404650     -12.91231177       4.69601324      -0.53566277       2.13226647       1.49120602       0.27444207      -1.12608666       0.29032072
N      -12.85741505       8.13451825       3.41313952      -0.97229445      -1.98481271       0.23331862      -1.12128742       0.88950914       3.77655642
N      -12.59689663     -13.30189082       3.44664851       0.22872055       0.04977270      -0.43118824      -0.43103680      -1.62233659      -1.86577837
N      -13.11807595     -15.26883513       5.52538143      -0.16265776       0.96800432       0.22760865       1.13088392       1.96391506      -2.10270711
O      -14.63049032     -10.79187575       8.64331618       0.53935811       0.15066083       0.95572476       0.45326363      -0.53200587      -1.54887366
O      -13.25162221     -12.04911757       9.63476739       0.81699466       2.47162204      -0.24429923       0.02558730      -0.76402786      -1.96655942
O      -12.50598044       7.82015354     -21.28747643       1.30070570      -0.66308100      -0.23382147       0.61297270      -0.03841529      -3.13820132
O      -13.45346300       9.20904795       3.68875414      -0.55578191      -1.04721613      -0.33011250       1.24958183      -1.91127845      -1.04997027
O      -13.00456186     -16.06297874       6.40304863       0.35519193       0.28455339       0.47304224      -0.24081582      -1.99707077       0.69305884
O      -13.41595612     -15.50959701       4.35364474      -0.64899946       1.02311980      -1.12972201      -0.40380459      -1.64813418      -0.01873808
H      -13.31472744     -15.25687899       8.11951500      -0.30289127       0.18330507       0.01755233       0.32454927      -0.14453108      -0.74093094
H      -13.42627071     -13.84202499       8.90952075       0.16938429      -0.28141870      -0.08564227      -0.17091428       1.39232073       3.19494178
H      -12.50508208       9.61682955       5.71542934       0.21243332      -0.06481418       0.71353864       1.30876221       1.34121478      -2.11754196
H      -13.23096292       9.14241570       7.04233889       0.25028415       0.07977559       0.29834437      -0.44266765      -0.34711957       1.03562937
H      -12.82647874     -14.28669043       3.24343409      -0.06730313      -0.10848714       0.13661541       0.29466379       0.89034793       0.31672534
H      -12.58812075     -12.69972497     -20.99812463      -0.07630286      -0.04071308       0.30613427       0.20236237       0.05294171       1.10440235
C        7.37284759       2.25756462     -11.16902673      -0.38082683      -0.80136145      -0.10791619       0.38420448      -0.68307590      -1.02967546
C        6.97275124       3.60184682     -11.59049032      -0.07887106       0.91712606       0.01326460       0.14465519      -0.05241235       3.44191029
C        7.71246264       1.95844354      -9.81169353      -0.49428852      -0.50346867      -0.00995781      -0.83991248       0.32673860      -1.07299988
N        7.41850522       1.18486982     -11.99946401       0.66032067      -0.44443253       1.13973177      -0.00582868       1.88577646       0.81308042
C        6.82106996       4.66919301     -10.49347493       0.38884468      -0.55752746      -0.63258425       0.99733201      -1.78919719      -2.02782735
N        6.59774106       3.88135583     -12.90575670       1.18214529      -0.71179275       0.24697910       0.35850031      -3.83580587      -0.39625441
C        7.62712021       4.33215636      -9.31313029      -0.30084345       0.24837951      -0.85286295      -1.42413287       0.02449556       0.76173345
N        6.07034951       5.76553263     -10.80472949      -1.65310891      -0.50204193       0.83045014       1.23675348      -0.04415019       4.53668045
C        7.75194990       2.91767652      -8.83538259       0.70974494       1.53864394       0.26806487       0.36673694       1.95825791       0.45582650
N        8.02144621       5.40448543      -8.39814550      -0.10275589       1.04375318       0.61876206      -0.19957598      -1.90692643      -0.31781450
N        8.02182831       2.55985898      -7.55817672      -0.97743719      -0.74028180      -0.29538653      -0.00328027       1.99732042       0.67604718
N        7.81594721       0.57775899      -9.40800770      -1.57000122       1.16445570      -0.94439452      -0.96166690      -0.70047040       1.67784556
O        6.14997529       4.92617168     -13.20448350      -0.58809408      -0.72508740       0.26772528      -1.43900732       4.27671049      -0.63682608
O        6.67144406       2.99734923     -13.77995378       0.41292555      -0.96227322      -0.77530299       0.60307595      -0.67315989       0.54312299
O        8.09079563       6.50740718      -8.94053799       1.64160194      -0.94855808       0.97628651       0.10073890      -0.41452660       1.66157128
O        8.31762128       5.08035237      -7.21796977       0.94424695       0.28574100      -0.61011421      -0.09083944       1.89159428      -2.49501907
O        7.15101626       0.22661379      -8.42006864       0.45989604       0.06181799      -0.52327498       0.96561756       0.38685525      -1.34245240
O        8.52139937      -0.19185303     -10.04823338      -0.94622741       0.33727482       0.54677064      -0.03860684       0.05216718       0.03450694
H        7.84133982       0.34128689     -11.61804411      -0.00266971       0.19289852       0.05245788      -0.33965723       0.20781730      -0.70788833
H        7.00030810       1.35623273     -12.89275536      -0.08574502       0.03133124      -0.05321119       0.22147648      -0.37616347      -0.57414183
H        5.74019076       6.42632881     -10.04515256       0.40708653       0.47048006      -0.49063731       1.02276636      -1.28508063      -1.38705840
H        5.65992615       5.81733957     -11.68747777       0.03272711      -0.22030300       0.15205575      -0.43534948       0.00022646      -1.52803867
H        7.62936250       1.76304297      -7.15856012       0.01519943       0.02365789       0.01137948      -0.43630937      -2.02270088      -0.50759827
H        8.02471991       3.23860446      -6.80861639      -0.41669666      -0.00419589      -0.55021474       0.29815883       0.59808957      -0.95828394
C      -31.45170339      36.50083285      28.96295432       0.15581233       0.45717346       0.56125082       0.32944297      -0.33001972      -1.93824175
C      -32.06892182      35.30345908      28.36021213       0.76108327      -0.06620627       1.51193916      -0.02438892       0.71960258       2.31756639
C      -30.88022994      36.46423324      30.23694073       0.65279671      -1.08938613      -0.59135781      -1.05603746      -0.92707023      -0.78806549
N      -31.28109596      37.65076555      28.29927992       1.78339860       1.33981101      -1.43365696      -1.93490259      -1.60231416      -4.39099295
C      -32.58794147      34.32355870      29.29136754      -0.07189122       1.28776947      -1.12593760      -1.64231016       0.34256753      -0.67228155
N      -32.43151489      35.41893625      26.99709067      -0.12113166       1.39520365       0.30489711       0.01450508       0.43143774      -1.70680799
C      -32.24758521      34.46589621      30.65588141       0.34848171      -0.91749230      -0.33614572       2.76704265       0.67235953       0.86615112
N      -33.50096669      33.33059521      28.92329447      -0.04983445       0.90617961      -0.37288923       1.52306612       1.49837002      -1.17844886
C      -31.13123310      35.42737292      31.11781056      -0.62137147      -1.40301563      -0.84522389      -1.54707406      -0.23837729       0.07612300
N      -32.67000576      33.46683992      31.60069852       0.76636572       0.64022265       0.45674480       0.99023305       0.85706266      -0.88585379
N      -30.49654145      35.51915248      32.30666699      -0.65102465      -0.20711304       0.04536778       0.00095825       0.10617129       0.84187874
N      -30.10142069      37.59282373      30.69547144      -0.60466233       1.47314092      -0.65620112      -2.34698204       1.32755772       1.13625989
O      -33.39535882      34.82949609      26.49496851      -0.90376771       0.62024708      -0.44266842       0.73465083      -0.12805283       0.96866869
O      -31.70846913      36.15950007      26.29033941       0.06133694      -0.71023966      -0.85107308      -0.86071070      -0.86400346       0.60086372
O      -32.14098825      33.55193973       9.08021840      -2.11856031       0.17767335      -0.36150370      -0.43046925      -0.64328708       0.85330475
O      -33.46510978      32.62683571      31.26035983      -0.53000965       1.17105107       0.31658695      -0.14854012      -0.91359880       0.84367162
O      -30.72318970      38.64376423      30.97482555       1.26551898      -0.72978629       0.05081636       0.90230876      -1.44553754      -0.81481459
O      -28.96451221      37.37816810      30.95968089      -0.35908828       0.06141882      -0.33554592       2.01084389       0.25056321       0.12346639
H      -31.07378335      38.42584705      28.77721304      -0.18914241      -0.16359688       0.28646869       1.10185982       3.08761232       2.41011043
H      -31.63139748      37.90274879      27.31789205       0.04099720      -0.06233740      -0.29769757       0.76637022      -1.53218456       2.22733354
H      -34.26821320      33.15656532      29.51153598      -0.20739394      -0.20922053      -0.03803306      -0.25727785      -0.45939751       1.31155470
H      -33.86933365      33.42965290      28.00604962      -0.23212258      -0.16884033      -0.19279522       0.32130041       0.40801319      -1.05227648
H      -30.09797430      36.37711618      32.67718345      -0.23953867      -0.25512175      -0.25761820       0.02398864      -0.08796237      -1.29659734
H      -30.68441587      35.01012267       9.51418697       0.09743929      -0.12785042      -0.30345705      -0.84638445      -1.22421989      -0.20975316
C      -71.83364424     -22.53594589      30.24196222      -0.00267443       1.14898108      -1.67671398      -0.49560870      -0.21996880      -2.02034519
C      -71.94385976     -22.96680283      31.55236915      -0.55965854      -0.60762854       1.88073649      -0.15873829      -1.45623520       2.85913354
C      -71.03681838     -21.37673176      29.96781811      -0.26902114      -0.94481291       0.64507108      -0.31247905       0.43748541       2.96237098
N      -72.51378509     -23.18532206      29.26377339       0.52907180      -0.19977800       0.31422533       0.64418281       1.85389591      -0.96804174
C      -71.27790344     -22.36519858      32.67851968      -1.69131379      -1.58353155      -0.48365567      -0.34558709       1.04251506       0.40209544
N      -72.68383692     -24.28913417      31.81005570       0.35539139       0.70845731       1.71235739       1.56059326      -0.86268403      -2.10650297
C      -70.39580685     -21.23245387      32.44850082       0.73377191       0.13425785      -0.88265976      -1.46870983      -0.41864004      -0.56758601
N      -71.46167719     -22.71968356      33.96035013      -1.13948142       1.15109698      -0.53317979      -0.53655998      -1.34810095      -1.85883423
C      -70.38358556     -20.66105363      31.14691062      -0.11887589       0.75648295      -1.49139532       0.02504335      -1.73390869      -1.57682450
N      -69.82678912     -20.45771755      33.56501298      -0.50919851       0.73063705      -0.65073696       0.34722254      -0.30341851      -0.02153033
N      -69.65618943     -19.59254044      30.96173953      -1.27259892      -0.89730737      -0.85705300       0.16950239       1.47280813      -2.98135941
N      -71.18702190     -20.74788436      28.72962973       0.61099411       0.23349517       0.44589677       0.75518046       0.49692871      -2.39289376
O      -73.41111015     -24.46549464      32.78654728       0.70691030       0.53726266      -0.19830263       1.39407854       0.42724569      -1.71194393
O      -72.39433913     -25.16582036      30.90910972       0.46920122      -0.44102413      -0.24961122      -1.48707266       1.82153406       3.29595619
O      -68.70928437     -19.92268096      33.39499060      -1.38316247       0.02891692       0.69392134      -2.41482472      -0.59561643       0.96552250
O      -70.45552831     -20.39179660      34.64101403      -0.79404826      -0.53053184      -0.04092939       1.07748266      -0.15169594      -1.38396671
O      -71.01042744     -19.52967790      28.62871349       0.49519301      -0.22709031       0.48585821      -0.18715461      -1.00272682       0.24308867
O      -71.39875773     -21.45704885      27.68995764      -1.13878042       0.66070479       0.23074734       0.14299312       1.24461675       1.86028485
H      -72.56586999     -22.85994143      28.30095419      -0.61181921      -0.49961199      -0.08706198       0.86383753       0.49654792       0.70404446
H      -73.16941159     -23.88707114      29.40426449       0.15158935      -0.30302532       0.28394373      -0.67391185      -1.37867630       1.16349362
H      -70.94394328     -22.13852449      34.57961033       0.09124049       0.04042989      -0.19914395      -0.18959433      -0.27584087       1.08485122