1296
Lattice="-46.55355000253576 -16.976871637080148 10.055857472474237 0.0 16.151818801790498 15.81641202716642 0.0 0.0 -29.938897670096964" Properties=species:S:1:pos:R:3:momenta:R:3:forces:R:3 energy=-1487777.887350963 free_energy=-1487777.887350963 stress="0.001599137789975477 0.0003996886047723314 -0.002199796385872325 0.0003996886047723314 0.0022849442737362265 -0.0004643601544311862 -0.002199796385872325 -0.0004643601544311862 0.002448816490947756" pbc="T T T"
C      -30.77013218     -18.86556172      -7.37864545       0.02709711       0.11455787      -0.26675557       0.90878125       1.57680486      -1.25198220
C      -29.99981247     -17.86908970      -8.24343069      -0.69281759       1.00133828       0.02130954      -0.68001167      -1.64457132       0.07061363
C      -32.11344625     -18.55298926      -7.01971042      -0.00358490       0.28489815      -0.49507337       1.38846013      -0.01968802      -0.86670452
N      -30.15367503     -19.94667206      -6.95514336      -0.03952904      -0.92196252      -1.83873736       0.66426732      -1.08405180      -1.07859513
C      -30.42722766      -0.37927948       7.46795703       0.79442255       0.17426995       0.07773919       0.17922113       0.41942774      -1.68508487
N      -28.89248640     -18.38781689      -9.14515401      -0.43653192      -0.22509097      -0.29022602      -1.52386574       1.00447311       4.08845410
C      -31.58985263      -0.06344224       8.20604731      -0.09266240       0.36048946       0.49471458       0.78627328       1.83202797       0.09856392
N      -29.93287709       0.57908243       6.62248757      -0.65288810       1.21267838       0.15539088      -0.69633827      -0.89783134       1.82478013
C      -32.40874350     -17.16070756      -7.14136275      -0.19440675       0.10286039       0.13370759      -3.78093813      -1.92179571       2.74321668
N      -31.86224458       1.32739897       8.70510175      -0.41977736       0.28063133      -0.57376844       0.94615514       3.54969859       1.20971137
N      -33.59508982     -16.87445804      -6.53785333       0.87345287       0.73526639       0.52353700      -0.11538293       1.35097316      -0.88623032
N      -33.02305446     -19.46075240      -6.36777777       0.32781283      -2.20897612       1.33415351       1.45710419      -1.05432972      -0.15154566
O      -28.35355499     -19.41987568      -8.80361377      -0.68374881       0.07741641      -1.62835132       0.38386969      -1.11732979      -0.51969820
O      -28.46718206     -17.65253594      -9.97364890       0.67228699      -0.01383926      -0.61254225       0.51597248       1.06034328      -2.10090908
O      -31.28149410       1.69463035     -20.16344425       0.13534991      -0.11756710      -0.73254066      -1.53284412      -1.81001363      -2.93134268
O      -32.57016635       2.15777161       8.07294399       0.75515279      -0.53266087       0.58889867       1.15843151      -2.64015597       0.76840142
O      -32.61601890     -20.63535310      -6.15319505       0.29043568      -0.25896611       0.40010811      -1.03033398       1.87375560      -0.23222412
O      -34.15411524     -19.07733547      -6.05131971      -1.91083453      -0.22134759      -0.62243788       0.38908745      -2.40357496       0.09887054
H      -30.78746374     -20.68194990      -6.75002164      -0.16446440      -0.17399208      -0.10779474      -0.33269581      -0.68878364       0.76223246
H      -29.32022719     -20.24533471      -7.46417291      -0.43901347      -0.05890180      -0.21658172      -0.36353452       0.43023645       0.45117633
H      -30.51307350       1.37449374       6.46197482       0.40145247      -0.08792372       0.18836520      -0.07378899       0.23999221      -0.07615461
H      -29.26104914       0.32770284       5.94677490      -0.05278807      -0.08106898      -0.00309473       0.64724058      -0.21495877      -0.58745993
H      -34.29297399     -17.65363148      -6.44537479      -0.03703258       0.08302427       0.05546354       0.98720818       1.42045371       0.06119887
H      -33.89518623     -15.93361924     -36.54729787       0.21708808       0.17937176      -0.11352048      -0.42409995       0.64024904      -0.03445707
C      -50.63320355      -3.02199178     -16.28571286       0.18518404       0.25507206       0.64613061       0.37624838      -1.50027496       1.72980790
C      -50.83136561      -3.57679459     -14.96375695       0.38642605       0.13303709      -0.04665697       0.56020918       0.56909642      -0.08476837
C      -50.45571396      -3.98924956     -17.28605255      -0.02362556      -0.00809985      -0.67535298      -0.37004125      -0.96462962      -1.70028089
N      -50.55695549      -1.71778357     -16.53475345      -0.50738329       0.29463445       0.34733919       0.34388315      -0.24792579      -1.60273973
C      -51.15334507      -4.95184813     -14.71492012       0.17882903       1.52638032      -0.52575664      -1.06195585       2.06424811      -0.10129722
N      -50.81760864      -2.62343330     -13.81611312      -1.10118033       1.79388168      -0.84342779      -0.37020151      -1.84623866      -0.14392782
C      -51.17506079      -5.84281145     -15.81634542       1.68182535       1.24738510      -1.06322946       0.63608310       0.69753993       0.36624171
N      -51.75637821      -5.20341640     -13.52388713      -0.28954242       0.17364523      -0.38116688       1.07860349      -1.69428219       1.28035583
C      -50.72409111      -5.37739487     -17.13782201      -0.74669776      -0.58976610       0.24335224      -1.94994980       0.39860484       3.21016000
N      -51.73026264      -7.18497168     -15.58606749       1.53776613       0.15486799       0.19289834       0.45659377       1.29689383      -1.54564172
N      -50.72353953      -6.27067536     -18.09532507       1.81727732      -1.16841361      -0.30829839       0.31766402      -1.03692633      -2.50766943
N      -50.07317150      -3.53863676     -18.69398247      -0.07316435      -0.05513795      -0.47757339      -0.65368537      -1.09931827       2.17752374
O      -51.32272717      -1.54795560     -14.03921776      -0.37308177       0.37317300      -1.58114590       0.07580443       1.34983238       0.05626103
O      -50.41407758      -2.94894178     -12.68537498      -0.03383810       1.18708565       0.22155738      -0.21890175      -0.02253610      -1.37526499
O      -51.63047253      -7.72236794     -14.51068495       0.00046260       0.39090087      -0.67187499       0.01595680      -0.12910370       0.54200653
O      -52.28802384      -7.70891573     -16.55594712      -0.28857822      -0.67335290       0.23336056       0.03875287      -0.35667739       0.24565851
O      -50.73187332      -3.79709153     -19.65443091       0.24591152       2.32285163       0.41532959      -1.46704249      -0.79829066      -0.84296309
O      -49.02358223      -2.98125928     -18.76845618       0.84361979       1.15309301      -1.44562619       2.22919020       1.72615042       0.34553587
H      -50.51244201      -1.04784071     -15.81390364       0.22145064      -0.12509602      -0.17193858      -0.24174266       0.52439775       0.66318599
H      -50.24084654      -1.44447853     -17.45561300       0.18603841       0.11000542      -0.38134830      -0.06607774       0.13449378       0.31941371
H      -51.56501591      -6.22396627     -13.29709140       0.06665126       0.12736287       0.44501419      -0.94951527       2.03688639       0.47513809
H      -51.80886191      -4.44513946     -12.76959170       0.11509781       0.14285747      -0.00456101       0.45990208      -2.07801363      -1.69973820
H      -50.43841571      -5.96652253     -19.01112805       0.10018580      -0.11450752      -0.10335886      -0.10326432      -0.16740914      -0.00230308
H      -51.28555540      -7.13937050     -18.06517211       0.24571681      -0.01530309       0.01528433       0.60972197       1.04693320       0.55121822
C      -47.83385783      -9.25960319     -46.59862111       0.73323471      -0.95487304       0.52225064      -0.54772479      -0.30299371      -4.68195398
C      -47.46438287      -9.13903903     -45.32956960       0.78764729      -0.23142299      -1.14051731       2.61736362      -1.19381948       3.85800745
C      -47.15013091     -10.25913078     -47.39164045      -0.34367937      -1.03006522       0.38178885       2.14983546      -1.06396444       1.12667221
N      -48.80510716      -8.46191405     -47.16767566      -0.25958428       0.55328827       1.46355838       1.54639455      -1.51544473      -1.91178745
C      -46.44069751       6.14998860     -28.88550580       0.29459870      -1.25499317       0.01875655      -2.50846745       1.63940835       1.55207681
N      -47.98435554      -8.10096405     -44.50908906      -0.25346640       0.66114942       0.09978681      -1.89985912      -0.40557431       1.27856128
C      -45.63125460       5.43703241     -29.71297200       0.62837304       0.78161805      -0.23976870       1.52919358      -0.73628700       0.05176643
N      -46.31756192       6.08476601     -27.54776820       0.51084940       1.07639066      -0.56054128       2.98611959      -2.37678115      -4.51659927
C      -45.91124739     -10.82003929     -46.90169703      -1.53809181      -0.88465450      -1.18483413      -0.64877715      -0.27065209      -0.60930110
N      -44.45821864       4.76696822     -29.17352699       0.24081696      -1.34613298       0.33315047       1.75923627      -0.27686098       0.85423933
N      -45.10551878     -11.54274279     -47.68695280       0.22836405       0.41780115      -0.11516050      -3.07917430       0.20098887      -1.77924525
N      -47.81009961     -10.99602951     -48.44917980      -0.92398679      -1.26329426       1.33959011      -1.62098272       5.74970076       3.07035108
O      -48.34790488      -8.31418880     -43.35709911       0.54632943       1.39505372      -0.73934872       0.89536427      -0.87236042       0.47817255
O      -48.22669065      -7.04362802     -45.00951419       1.10028170       1.91197203       1.18434822       0.29591971       2.08505364      -1.19777644
O      -43.47786926       4.69429763     -59.86689205       0.06103211      -0.43291083       0.11576886      -0.83365095      -0.18788324       1.15856443
O      -44.38750801       4.34098249     -27.97908625      -0.83003777      -0.29226112       0.15666842      -0.88084891       0.73238297      -2.64613495
O      -47.50567768     -12.06816082     -48.76947245       0.83965483      -0.71880291      -0.08078522       1.38573855      -4.04374627      -1.84383713
O      -48.82664096     -10.38983317     -48.75028942      -0.95236596      -0.18594699       1.03415786      -1.25023446      -0.84717838      -2.27346933
H      -48.64864810      -8.02402822     -48.10554631      -0.04137403      -0.27507497       0.15478657      -0.20106542      -1.17097182       1.38125916
H      -49.12846138      -7.86549911     -46.50569807       0.06799666       0.38875539      -0.07447931      -1.12190063       2.49660193       1.52763920
H      -45.63817920       5.42905631     -27.24645590       0.29964957       0.20661999      -0.28798847       0.61353625      -0.44826653       0.70908491
H      -46.84577404       6.56803306     -26.98061888       0.11544673      -0.03418804       0.11832967      -3.48073861       3.02256752       3.30587618
H      -45.54952484     -11.86560680     -48.55152661       0.29778187       0.14350626       0.03413048       0.74302550       0.21090459       0.45595981
H      -44.17278137     -11.65666849     -77.41223003       0.36181474       0.57794392       0.46109555       1.82328421      -0.54940685       0.54683550
C      -36.15145222     -17.70250665      -0.91634966      -1.02088756      -0.42559401       0.43402901      -1.00892104      -1.05427194       0.08733581
C      -37.54833787     -17.54757450      -0.42540910       1.79832558       1.35972335       0.78117570       2.54273341       0.98152080      -2.24918357
C      -35.44671299     -16.62758167      -1.65432962       0.59103999       1.28416105      -0.36407237      -0.71079337      -3.30973996       2.16615734
N      -35.57575063     -18.88586253      -0.72333321      -0.02868488       0.67778861      -0.23025388       0.02835962       2.92484553      -0.70623548
C      -38.20142854     -16.31664232      -0.84709221       1.58348552       0.86925674       0.84813908       0.27303601      -1.33890488       1.53419470
N      -38.29754000     -18.71050268      -0.00012514      -0.78918942       0.13680105       0.18111347      -0.29194260       2.86354935      -0.51812626
C      -37.53252706     -15.31465779      -1.64502007       0.83992049      -0.00337453       0.05132864       1.03318493      -0.28637209       0.60317237
N      -39.40024300     -16.13326271      -0.39795547      -0.48958111      -0.38599605       0.95967407      -0.35892119      -1.01503204       0.45413433
C      -36.13537316     -15.45347965      -1.96335380      -0.44535565      -0.72526252      -0.60917871       0.82707818       2.80989189      -2.03264550
N      -38.15528283     -14.04657564      -1.78597945       0.14057053      -1.19007163       0.53949590       0.29304334       0.04841233      -1.48780728
N      -35.48873040     -14.44761080      -2.63871659      -0.55145344       0.01077968      -0.18341330       0.37274296      -0.64988829       0.91485173
N      -34.08456985     -16.92638614      -2.02741498      -0.67070892       0.65246195       0.40526936      -1.70096712       4.04718780      -0.77921063
O      -37.80529314     -19.80482045      -0.11883405       0.31442711       0.89513741       0.65157123      -0.35872116      -1.47774881       0.42136588
O      -39.43126342     -18.49038340       0.41871600      -0.54820793       0.46801157       0.08227799       0.09952930      -1.21587438       0.48778758
O      -39.24726422     -13.86995384      -1.29443552      -0.89430553       1.33054312       0.35878109      -1.57618114       0.41676126       0.96109878
O      -37.67827856     -13.15622715      -2.47923704       0.46873150      -0.15317164      -0.27949299       0.77714003       0.03302645      -0.05464587
O      -33.61791802     -15.98358441      -2.69858538      -1.76764616       0.78909177      -0.34704806       1.70417542      -2.35319840       0.37004242
O      -33.48394103     -17.91018347      -1.66415798       0.26851337       1.87100699      -0.58105711       0.86024305      -0.29340503      -0.35037299
H      -34.62109945     -18.92250577      -1.01741430       0.13527577       0.15834995       0.16391332       0.52636252      -0.65131830       0.06245721
H      -36.15864937     -19.57821836      -0.35135408       0.08297200       0.27615773       0.00310890      -0.48292792      -1.34652235       0.61222085
H      -39.84486399     -15.36561334      -0.81114253      -0.03136752       0.15694502       0.11163266      -1.22566381       1.43707358      -0.00804894
H      -39.93786868     -16.83526239       0.15043015       0.23507163       0.04385836       0.35167762       1.27132908       0.44054307      -0.83540725
H      -34.47411926     -14.37286598      -2.64985941      -0.33842508      -0.32931632       0.40641819      -0.68984497      -1.00634476       0.03218786
H      -35.90264653     -13.60993100      -2.97013326      -0.09699482       0.01603138       0.04816443      -1.32703549       0.13911863       0.32900778
C      -18.65377905      -6.31597227       2.44492574       1.84389839       0.25336223       0.40028964      -1.65055697       2.27832807      -2.34186815
C      -19.21319058      -6.20220675       1.07789358      -0.49306297       1.57431404      -0.68794652       1.26383939      -1.18139331      -0.73061248
C      -19.11012068      -5.33770796       3.30399416       0.00439481       0.18327005       1.18149955       1.50412638      -1.39677307       4.07043176
N      -17.75877582      -7.14080785       2.87341902       0.45517320       0.32981422       0.85364292       0.59167818      -4.21247860      -4.84724812
C      -20.19430742      10.93860849      16.45922647      -1.31064663      -1.36330909      -0.79296638       1.28606285      -0.70800420       3.33939540
N      -18.63529746      -6.99504517       0.00909031       0.01910153      -2.23087994      -0.36593106       0.15460879      -1.50100344       1.32333167
C      -20.56936440      11.79512378      17.54221749      -0.77813101       1.09214788       1.03644930       0.10529514       0.73240497      -2.70141659
N      -20.74749345      10.96018353      15.27012174      -0.37454760       0.83310984       0.33838129      -1.92341535       1.47719603      -0.12094866
C      -20.06043595      -4.40594322       3.06095698       0.13090352      -0.88742900      -0.31005129      -2.17042337       0.38705040      -1.38823569
N      -21.18440220      13.01282561      17.08073070       1.01604352      -0.96526672      -0.44292140       0.41417009       1.09878918       0.99462858
N      -20.55437583      -3.64140442       3.99418243       1.23424041       0.75805501      -0.03409816       0.09345669       0.97769102       3.69502813
N      -18.68568151      -5.50624218       4.77245535      -0.67469899      -0.61377748       0.18689150      -0.03629402       1.24099167      -0.46759043
O      -17.96346768      -8.07408778       0.23186092      -0.09306521      -0.47489238       0.86901372      -0.84078679       2.53575410       0.12390558
O      -18.89982629      -6.65976186      -1.12833322       0.36925887      -1.38148362      -0.49565012       1.10383002      -0.63096594      -0.51358635
O      -21.86074323      13.55230098     -11.97494726       0.37562868       0.33465641      -0.70092553      -0.21782340       0.82454926      -1.69742127
O      -20.89707370      13.55460368      15.97659051      -0.29456357      -0.64694660      -1.58547228      -1.02231866      -1.13847173       2.00648616
O      -17.54627163      -5.92896781       5.02552650       1.03749120       1.80757115       1.87480908      -1.38555348       0.51015090       0.23824315
O      -19.45259196      -5.10733016       5.65972987      -0.60297296      -2.96114272       1.46126243       1.36538511      -1.27786542      -0.73138559
H      -17.19640484      -6.96796709       3.64044116       0.04590564      -0.44926933       0.25837615       0.94866097       0.34529060       1.68133739
H      -17.49172116      -7.82286329       2.10305774      -0.42221504      -0.10393405      -0.23917895      -0.04829548       0.87161248       1.45317740
H      -21.50840356      11.55718317      14.92418917       0.02018454      -0.21578781       0.00900149       0.64273045       0.03687024       1.09378164
H      -20.37352505      10.40740205      14.57164462      -0.12471894      -0.04264285       0.53507981       0.90593497      -1.17196025      -1.12634967
H      -20.46670097      -3.74283633       5.02343236      -0.40052973      -0.39124243      -0.00431453       0.84605216      -0.86893064      -1.58871251
H      -21.20786814      -2.94487922     -26.08014205      -0.10028042      -0.15124422      -0.27081031      -1.35881150       1.19852984      -1.64142001
C       -1.23974381      17.41484302       0.21277279      -0.34673450       0.50640660       1.11936416      -0.18206167       0.02989705      -0.47235287
C       -2.34707243      18.26996430       0.61215110       0.18340894      -0.08724856      -1.58910938       2.48727449      -0.96203151      -3.50372656
C       -0.61447628      16.68809077       1.25360982       1.75859655      -0.19117317      -0.32259686       1.56742580      -1.09412345      -2.78411753
N       -0.90828231      17.25901059      -1.12774597      -0.71505685       0.00983130      -0.74548542       0.08159493       1.07529932       0.58742194
C       -2.75319209      18.38802394       1.89752168      -0.67543696      -1.12487439      -0.37260814       0.65697461      -0.45665273       3.13416312
N       -2.91732723      18.99595268      -0.56490924       0.80212749       0.47450641       0.66904602       0.36865057      -0.18238484       1.48523682
C       -1.91811305      17.76742097       2.92555271       0.20283134      -1.31889647      -1.54417621      -1.44216670      -0.43951849       0.15576603
N       -3.82526380      19.13722604       2.22686026       0.57249290       0.01491892      -1.50861297      -0.68842874       1.89335100      -4.10412889
C       -0.83828610      16.89845861       2.62350464      -1.04461340       1.84524506       0.44530259       0.13413070       0.88243917      -1.40472449
N       -2.30046654      17.91189486       4.37552240      -0.41427622      -0.51721880       0.44365185      -2.47015200       1.62793367      -4.26762154
N        0.02413671      16.47698380       3.52816260      -1.29881833       0.77301760      -0.93301642       1.99533826      -2.06051446       0.64852305
N        0.55191287      15.68162526       0.71247349       1.11030035      -0.22675095      -0.77204992      -1.89313740       0.48022051       2.18104403
O       -4.11980388      19.07624119      -0.59420254       0.52553736       1.24840643      -1.31293550      -0.89398460       0.46005616      -0.26837624
O       -2.16964976      19.48791730      -1.39584060      -0.60407225      -0.75291569      -1.12502703      -0.34668763       0.05528817       0.20941638
O       -1.43956887      17.95056732       5.15595542      -2.27330063      -1.20175333       0.86905948       3.19834306      -0.49050692       3.29717041
O       -3.47295241      18.16372230       4.65254225      -0.68240040      -0.49453944      -1.01223236      -0.24602835      -0.47315733      -0.09626246
O        0.75525777      14.64016533       1.34783712      -0.80516311       0.11210352       0.38003393       0.04914958       1.73993519      -0.97388192
O        1.12263210      16.01125179      -0.31371808      -0.65594246      -0.68595511       0.02426239       0.60858470      -1.04195406       0.78089176
H       -0.15818003      16.54901507      -1.25662046      -0.01989528      -0.09669427       0.21258292      -1.06656833       1.64215791      -0.45754632
H       -0.99240309      18.14616548      -1.74203809       0.09806901       0.44910502      -0.36066696       0.18315863      -2.53505400       1.48423013
H       -3.94127538      19.53927414       3.12091681       0.10094596       0.02381403       0.28784495       0.09402982       0.08359725       0.71799072
H       -4.01967650      19.76675991       1.35378151      -0.19572805      -0.07500831       0.19338836      -0.31943734      -1.42871282       2.83828154
H        0.84914497      15.81802817       3.33736105      -0.02895842       0.53194506      -0.15204221      -2.33246883       1.45235866       0.21481815
H       -0.30648699      16.62463908       4.45734755      -0.13766473       0.40375781       0.21062629       0.68938909      -0.18004360       0.64694224
C      -31.15745889      17.43936043      43.63312546      -0.80929667      -0.64764915      -0.48688600       2.86745312       1.58024184       1.99847981
C      -30.39670103      18.36340740      44.35664902       1.05633313      -0.84894657      -0.05216075       0.68697288       1.76665133       1.36986764
C      -31.11228389      16.14497524      44.12238640      -0.89364486      -0.70695683       0.59467791       0.18683573      -1.85763953       3.14072725
N      -31.75242645      17.83907581      42.56626954       0.18528876      -0.18263950      -0.80308496      -1.32789407      -1.09038257      -3.41811797
C      -29.72904108      18.27364198      45.62756991       0.09131143       0.47437971      -1.29692374      -1.09516851      -1.34856211      -2.17516564
N      -30.29920858      19.67607181      43.71149470       0.11066315       0.85415761      -0.64265587       0.59549867      -1.83276158       0.25036747
C      -29.62542879      16.96377518      46.14134099       1.69517556      -0.41420499      -0.44233935      -2.24453956      -2.44534986       0.85683863
N      -29.08970529      19.28096226      46.12017424      -2.75647099      -1.47362380      -0.48794340       0.01914570       3.54989243       0.09510020
C      -30.36922366      15.92696247      45.44605291      -1.45330504      -1.29907514      -0.32829165       0.70474650      -1.28747801      -0.09302439
N      -29.41742183      16.65451605      47.59737061      -0.46028441       0.21639969       0.26035274       1.35567724       1.32501749       1.04407829
N      -30.26900344      14.68657629      45.95035776      -0.68564451      -0.78433425       0.21458035      -1.86876241      -1.09937175      -4.33529413
N      -31.95821261      15.13622675      43.53382289      -0.00242789      -0.50385608       1.82094350       1.56406098       0.29785943      -0.13626984
O      -30.47573616      20.66005612      44.37210163       0.12833224       0.98267424       0.24124632      -0.34356272       1.48845324       0.26964821
O      -29.94398518      19.65836509      42.54505142      -2.18535386       0.49265846      -0.15280598       0.13622133       0.90626156      -0.61951824
O      -29.36417605      17.65752497      18.42422644      -0.49034635      -0.10170649      -0.65798431      -0.20109518      -1.50981972      -1.40074582
O      -29.21635734      15.50958026      48.04883630       1.31392001       1.52970608      -1.06148422      -0.47856055       2.09856434      -1.11784010
O      -32.11964546      14.07438440      44.14966394      -0.49500334      -0.91545342      -0.63510276      -0.61184942       1.16379706      -1.76570967
O      -32.36637285      15.40539643      42.35082535      -1.14899801       0.17276963       1.46624477      -0.24926122      -1.96241935       2.17647891
H      -32.06842759      16.91891904      42.17830836      -0.34044244       0.35935656       0.23439538      -0.55384864       1.41873732      -0.96360020
H      -31.33038539      18.54800049      41.93611342      -0.35037564      -0.21701006       0.12202237      -0.74805722      -0.78738394       1.09197129
H      -28.57636689      19.20425114      46.95118217       0.24098030      -0.24779617      -0.28291395       0.49721073      -0.50624749       1.19703993
H      -29.31602010      20.25665585      45.82838417      -0.20033469       0.04650494       0.15766024       0.42458696      -1.42315715       0.22055692
H      -30.53368163      13.97565578      45.23525940      -0.21590874       0.20905811       0.26227256      -0.09762824       0.72620772       1.23502483
H      -29.91143565      14.29992203      16.84141587       0.21394193       0.11293636       0.15743857       0.82431257       0.82012089       1.13528777
C      -65.58088808     -11.16047686      -6.92566777       1.13582372       0.20483416      -0.51563225      -0.95676371      -0.54332578       1.76009524
C      -66.56173797     -11.60358441      -5.95520095       0.10694286       0.50177118       1.29043601      -0.42733380      -0.85284060      -0.24198458
C      -65.76592050     -11.70712181      -8.22951241       0.99775449       0.99568769      -0.47345007      -0.40717265       0.07023645      -0.15903510
N      -64.58428823     -10.37503854      -6.49235373      -0.04767233      -0.88516645      -1.26926021       0.24067426       1.75642572      -0.07349075
C      -67.52751735     -12.61029739      -6.16705359       0.25023085      -0.39512728       0.12072855      -0.42373298      -1.26336894       2.09463979
N      -66.59519719     -10.93963247      -4.60077325       0.71891085      -0.48352057      -0.19046997       1.68454361      -1.49793846      -3.21666118
C      -67.68729469     -13.18030630      -7.48947925       0.46165293       0.00158100      -0.46150065       0.76691373       2.79223179       0.48800459
N      -68.24553254     -13.11300332      -5.05085044       0.02196262       1.00348905       0.19504341       0.02329169       1.13200035      -0.07136614
C      -66.88917674     -12.50448927      -8.56150529       0.76806306      -0.85405389      -0.34492183      -0.94386899      -0.91698307       0.32450483
N      -68.97923845     -13.73608722      -7.73328912       0.45995780       0.25649089       0.84748684       0.93970388       0.28936051      -2.74550458
N      -67.23155914     -12.64366399      -9.84004285       0.29575466      -0.40242931       0.49032063      -1.35924679      -0.87017039       1.04651323
N      -64.92203421     -11.34809245      -9.32341829       1.41418693      -0.40712785      -1.96543650       2.13241319      -0.96356696       0.39380595
O      -66.82719576      -9.76426467      -4.72807049      -1.03517579      -0.07772073       0.43632470      -0.93485934       0.76410084       1.56986611
O      -66.25667059     -11.59100355      -3.63047866      -0.38225498      -1.48484190       0.47450543      -0.71087081       0.83773506       0.56781721
O      -69.29637201     -13.76764431      -8.93072929       0.18753471      -0.88219025       0.30647759      -0.79283668      -0.43725189      -0.18361829
O      -69.71940239     -14.17393263      -6.89983145      -0.30481547       0.83119660       1.66413396      -0.39116518      -0.40032806       1.51558179
O      -64.95566943     -11.88594298     -10.42160057      -1.16525619       0.22534816      -1.12383243      -0.82726419       0.16135103      -0.16034309
O      -63.95196717     -10.65760480      -9.04654785      -0.42747818       0.47173252      -0.13814823       0.32757671       1.25279292       0.50919571
H      -63.92870007     -10.05133704      -7.26423873      -0.23945921      -0.29573187       0.12114241      -1.24881879      -0.39744819       1.70864132
H      -64.71106605      -9.81013277      -5.54960221       0.18892492       0.01146663      -0.03094023       0.74022805      -1.55582245      -2.60124329
H      -69.21372073     -13.57844522      -5.18075682      -0.00025068       0.17788722      -0.12166145       2.73569045       1.26766510       0.17308325