1296
Lattice="-43.19217810231603 1.77679450326788 32.45018311961728 0.0 17.302511587882375 3.63442664191239 0.0 0.0 -25.62861370062905" Properties=species:S:1:pos:R:3:momenta:R:3:forces:R:3 energy=-1487789.011020442 free_energy=-1487789.011020442 stress="0.003952588763899055 3.250058149540441e-05 -0.0004001008257911737 3.250058149540441e-05 0.005016528620956551 -0.0005052967225028868 -0.0004001008257911737 -0.0005052967225028868 0.004837623373801331" pbc="T T T"
C      -28.88704107      13.19041779      22.13663982       1.42524617       0.55710231      -0.28967221       2.28841612      -0.06072333      -2.36654849
C      -29.72997198      12.91319081      23.18875407       0.27006811       0.09737821       0.88951313      -3.22970377      -0.24857868       2.49796845
C      -28.12101912      14.42774969      22.29010742      -1.46160456      -0.32416816      -0.17445809      -1.16597631      -2.38448600      -1.47157120
N      -28.61979017      12.36120335      21.00684726       0.79802087       0.11656052       0.32304628       2.29701705       3.93798151       1.08868506
C      -29.96351137      31.10633377      27.98815119       1.01939216      -1.22575711      -0.55665968      -1.41058694      -0.27876817      -0.60345619
N      -30.68962169      11.80121778      23.12072490       1.36094370       1.13398573       0.47002853      -0.18417811      -0.06355266       2.09542820
C      -29.01563631      32.12158637      28.16123718       1.01636590      -0.13193539      -0.21527945      -0.52437607       0.11094507       0.23522079
N      -31.11739877      31.05452712      28.78753426       1.30274304       0.41277951       0.26348605       2.86158940       1.22732314      -0.61086014
C      -28.00788187      15.09077830      23.50899323      -1.43591813       0.09296841      -0.50234196       0.69712198       1.46913977       1.11871860
N      -29.11902045      32.92259000      29.38466866       1.77389887      -1.40001265      -0.41475442       3.94356833       1.54459645       1.06031251
N      -26.94990628      15.95905938      23.66871208       1.05904705       1.02243081      -0.98278171      -2.59104360      -1.69075416      -0.55867823
N      -27.21278474      14.66727229      21.13091888       0.05646527       1.91370729       0.29409505       1.17692792      -0.02673970       3.20298763
O      -31.55881280      11.63234414      24.01868011       0.47923647       0.19994047      -0.05043252       1.11388266       0.17080381      -1.51948282
O      -30.56095072      10.98850207      22.25135565       0.32551781       0.41484852       1.36239113       0.25181058      -0.72920228      -1.54584080
O      -29.52128711      32.48584583       4.86354770      -0.96151013       0.38381882      -1.86528085      -0.33820384       0.59391743      -2.42456607
O      -28.44240176      34.00956600      29.32710409       0.00393829       1.26261927       0.33611346      -2.17438268      -1.91860412       0.21675833
O      -26.01683145      14.61571240      21.41585363      -0.51099122      -1.24695739       0.31703930       0.26097897       0.15285949      -0.16924041
O      -27.62017440      14.82906210      20.03052217      -0.16195109      -0.84419766      -1.08148615      -1.11565815       0.20252466      -1.63039044
H      -27.74607718      12.56224615      20.41655857       0.09341411       0.18294468      -0.25777146      -2.24900021      -0.40741466       1.56182890
H      -28.99496664      11.47521264      20.90607184       0.39965714      -0.21632883       0.12803986      -1.11302655      -1.61626562       0.24391952
H      -31.07058456      31.70022000      29.58889018       0.02441030      -0.16288402       0.46001351      -0.24867341      -1.00511727      -0.61834770
H      -31.61957166      30.18495252      28.76947486       0.08383846      -0.14943485      -0.82627690      -0.16107786       0.12256831       0.11356148
H      -26.20208154      15.62412590      23.11252652      -0.38159346      -0.39347499       0.10053479       1.11405541       0.46414628       0.04400540
H      -26.84620455      16.42076644      -1.08515897       0.00550894      -0.08726014      -0.17755960       0.21476539      -0.05317057       0.29763364
C      -44.47859134       2.53821146       5.15090918      -0.45873553      -0.77473782      -0.01590589       1.52687246       0.76079791      -0.12902596
C      -43.12424267       2.98563618       4.92299924      -0.34559944      -0.86730724      -0.06105293      -0.30231585      -1.82691761      -1.54908916
C      -45.00997769       3.05240027       6.36173876       0.76607511      -0.99663219       0.11992232      -0.12119425      -1.47988928      -1.60328737
N      -45.16541993       1.79690347       4.28577835       0.36109209       1.14812237       0.84635974       2.54982262       0.86388307      -0.84918281
C      -42.26299301       3.27794500       6.00360537      -0.82186681      -0.08780319       1.09425129       0.04632843       1.92875156       1.13777359
N      -42.56509273       2.66698196       3.61310334      -1.25550415      -1.35674105       0.52990369       2.00599827      -0.31834093      -0.75576275
C      -42.86690221       3.69366411       7.26223650       0.61835326       0.15502483       0.19699295       0.07099899       0.14754944      -1.39029847
N      -40.93586745       3.34830573       5.87068070      -1.39122542      -0.64864266       0.51081629      -0.81827986      -1.07241364      -2.35767885
C      -44.27692973       3.74155523       7.30281932       1.60009832       0.36018515       0.36203040       0.21125820       1.93349867       3.22964625
N      -42.08213915       4.41856394       8.25432527      -0.57855098      -0.10705509      -1.33933416      -1.29097538      -1.96374585       3.42868279
N      -44.82767363       4.50598523       8.35583048      -0.77498744       1.12008052      -0.95592969      -0.39091527      -1.65143058      -2.59936412
N      -46.38301561       2.84117882       6.54933391      -0.09178091       1.77167040      -0.41654739      -2.61966072      -2.61862930      -0.31507347
O      -41.43420488       3.04376243       3.26439035      -0.97115315      -1.26700957       0.08692310       0.41583344       1.10488151       1.71028391
O      -43.11170607       1.96810019       2.77366667      -1.88107308      -0.53294483      -0.77992256      -2.19283298      -0.56293487       0.20558878
O      -42.42850251       4.43792902       9.48493719      -1.09964464      -1.15325257       0.04470885      -0.87657493      -0.22678015      -2.21478308
O      -40.99488829       4.83783156       8.01226880       0.09759718       0.15610520      -0.23665000       1.80438700       0.92604641      -1.78053776
O      -46.96592947       1.71922053       6.24355222       0.38551106      -0.07910618       0.79129687       2.02570866       2.59312265       0.53169816
O      -47.01175204       3.75110710       6.99733961       0.22672595      -1.89725668       0.01208814      -1.09218305       0.91779178       0.60752633
H      -45.90275330       1.38290876       4.77399454      -0.22043986      -0.25601703      -0.05918043      -1.78649413      -1.18196032      -0.23278430
H      -44.64603118       1.48373315       3.40409252      -0.04933297      -0.19081813       0.14881153      -1.33386584       0.41297903       1.90202678
H      -40.50748986       3.88378008       6.57628222       0.24084399      -0.10736596      -0.11781422       1.16286622       0.52246994       0.47784800
H      -40.62712828       3.23515765       4.87698232      -0.02355615      -0.22517453       0.15152919       0.06650091       0.42135666       1.33897577
H      -45.83136298       4.56071177       8.36172983       0.13196334      -0.06852071      -0.01635754      -0.03229686      -0.07268361      -0.03019472
H      -44.42632267       4.25808808       9.21385152       0.04754162       0.08195832      -0.23603028       0.67216384       0.28893282       1.29808752
C      -42.53270953       0.73779188     -14.48766267       1.27174044       0.00888528       1.02470753       2.60992113      -0.55523414      -2.05528583
C      -43.54182454       1.33605531     -13.77283624      -1.25080012       0.42941688       0.52345803      -3.21787157       2.21874535       1.13971314
C      -41.23477772       0.64448175     -13.83930741       0.58160205      -0.19828216       0.36457322      -1.54776138       0.67918408       1.58933769
N      -42.61208067       0.32579773     -15.83740614      -0.07927546      -0.23715724      -0.91662759       1.96351892       0.59409503       1.78605194
C      -43.56454180      19.08398184      -8.75544341      -0.29743280       1.37802377       0.12607612       1.54766684      -0.77343860       1.58158358
N      -44.79069334       1.75429996     -14.45347834      -1.53882259       0.03412390       0.41525159       0.54919802       0.80948171       0.29188247
C      -42.33851169      18.77258407      -8.13558597       0.27251344       0.42534244       0.04070480       0.83373090      -0.40277600       0.19531156
N      -44.58172786      19.60018131      -7.99026095      -0.86383193       0.95546050       0.33759748       0.11654573      -0.25546121      -0.25152388
C      -41.17026213       0.99804124     -12.41794644      -0.61419582       0.96062155       0.46451175       0.90060970      -0.68225373      -0.51342319
N      -42.25523554      18.68518730      -6.64688407       0.77601613       0.98009638       0.48682808      -0.33858404      -2.16918028      -2.49942032
N      -40.02015513       0.80301621     -11.69722833       1.01322587      -0.75061021      -1.08371886       0.55153308      -0.16616015      -1.48864188
N      -40.02431639       0.27940081     -14.48849441       0.83523383       1.19538016      -0.74240588       0.01603311       0.46165859       2.34499686
O      -45.22396219       0.99326978     -15.28672957      -1.00011552       0.60926585      -0.32710206      -0.61265716       0.16406338      -0.53247451
O      -45.29139356       2.86660677     -14.15539597       0.05677728      -0.39201052      -1.46277907       0.81039973      -1.89454580      -0.53006349
O      -42.01351213      17.60608743     -31.82385154       0.07716852      -0.13172466      -0.46705006       0.79087227      -2.17483409       0.20934353
O      -42.54416819      19.58612046      -5.96373235      -0.26315347      -0.51067377       0.83871250      -1.07685152       4.59719515       2.01406646
O      -39.94953081      -0.15945136     -15.58509242       0.09871286      -0.84402194      -0.14816863      -1.32646165      -0.97683221      -3.49748243
O      -38.99853210       0.40823614     -13.85050325       0.74934625      -0.14552219       0.33467192       1.67281484       0.40921579       0.66698649
H      -41.70699079       0.38248825     -16.34631702      -0.17943994      -0.38933571      -0.34716032      -1.14709742      -0.36229317       0.71054531
H      -43.36625700       0.65479615     -16.36517587       0.12547408       0.31771416      -0.28942328      -1.24831921       0.34142870      -0.48904102
H      -44.59791388      19.62626359      -6.91533112      -0.05635288      -0.16328444      -0.04295150       0.30197460       0.11246827      -2.81556000
H      -45.29341618      20.08546924      -8.54259299      -0.11189754       0.40891588       0.15396563       0.17456457      -0.34695145       0.75122077
H      -39.14267264       0.57128967     -12.25900178       0.11020339       0.35755128       0.19507225      -1.99653781       0.50835374       0.90428626
H      -39.89204434       1.27984932     -36.46583757       0.11312657      -0.25374051      -0.32897765      -0.29064160       0.15332378       0.51971390
C      -32.95579490     -10.66487738      16.67633650       0.01032721      -0.78255234       0.14952992       0.06062533      -0.19199877      -0.63547049
C      -32.83784097      -9.29412524      16.87043797       0.02609482      -1.02684962      -0.13025079      -0.01880893       0.98234329       0.95522109
C      -34.28039614     -11.23750617      16.85286587      -0.69700734      -0.38323126      -1.05681052       0.11693669      -0.16858881       1.00206785
N      -31.91346443     -11.41173627      16.23523352      -0.55612813      -0.96915383      -1.84611180      -1.81601802      -0.44247348      -0.13872972
C      -33.84395577      -8.39504328      17.41806322      -0.20280945       0.53812871      -0.41320674       0.32091059      -3.07222585      -1.74348536
N      -31.45120094      -8.77504327      16.83247045      -0.39556541      -0.57944688      -0.06201255       1.03676349      -3.39990608       3.64487968
C      -35.08124191      -9.05137278      17.69667200       0.54355814       0.20885482       0.27829506      -0.23960309       1.45666452      -0.27641888
N      -33.61408653      -7.11919998      17.48330108       0.24680655       0.45336685       0.69437486       0.76466699       3.22542054       1.53186269
C      -35.26435498     -10.49020756      17.53486749      -1.17130110       0.38189404      -0.49801885      -2.86392285       0.70209915       1.93494365
N      -36.17908758      -8.12979395      18.03983427      -1.42678013      -0.22950258       0.83509999      -0.01446488       0.22481324       2.79974386
N      -36.43011471     -10.97195281      18.14865625      -0.13377411      -0.69786797      -0.26856583       1.41930487       3.52509516      -0.55961993
N      -34.49022875     -12.64938786      16.75255552      -0.40815078      -0.92773556       0.27671266      -1.49205717      -1.64059083      -0.71524652
O      -31.11014078      -7.98530377      16.02181052      -0.57930949      -0.92939035      -0.44082807       0.55819651       1.04639443      -0.75953337
O      -30.67834084      -9.31536045      17.73945680      -0.04336123      -0.43713215       0.37421507      -1.86313428       1.88997364      -2.93209864
O      -35.93709174      -6.94871029      18.49120924      -0.48319237       1.28787047       0.10487577      -0.52119141      -2.86305954      -1.44861337
O      -37.32773070      -8.60058784      18.09308468      -0.40777264       0.10341901       0.72702404       0.96955638       1.30706614      -0.50817495
O      -35.51634196     -13.17745121      17.22733905      -0.42947359       0.64156289       0.22619730       1.18099223       1.16273088      -0.11191820
O      -33.74608331     -13.34165100      16.05861349       0.73460167       0.49048131       0.31163032       0.38860043       0.65538943       0.25355853
H      -32.20374548     -12.31742900      15.86956248       0.00869498       0.36983995      -0.38415592       0.55293369       0.31599444       0.46696337
H      -30.97899696     -11.27484099      16.54165802       0.00975111       0.35760972       0.29720432       0.40980460       0.33769241      -0.01322504
H      -34.20007894      -6.54119404      18.17546067      -0.23200754      -0.02386250       0.40947461       0.98192558      -1.26634587      -2.03559486
H      -32.75380553      -6.68652757      17.07627641      -0.23959955       0.13235852      -0.25171408      -1.20161584      -0.80198507       0.73258830
H      -36.68708844     -11.89371610      18.25931789       0.34086604      -0.37432037      -0.14989750       0.28067844      -2.15299315      -0.33459355
H      -37.04785154     -10.24853425      18.59281670       0.13880608       0.01249847      -0.14683053       1.19421306      -1.11617268      -1.04461584
C      -22.34017138      -5.70984069      -0.18729894       0.19761703       0.13683997       1.53548406       1.69112474       0.99032644       0.61840379
C      -21.09975109      -5.47794924       0.59243702      -1.32104785       0.40804479      -0.04597583      -2.52654770       0.02852715      -0.58427831
C      -23.18036097      -6.80405937       0.10460674       1.14156687       0.12795161      -0.57974909       0.47550396      -0.55200368       0.40028741
N      -22.62604413      -4.84428413      -1.12011724       0.50514120       0.48334936      -1.17369449      -1.39401855      -1.03610073       0.16143582
C      -21.04647271      11.07829769       5.41922126       0.17446240       1.04775163      -1.53992893       2.06935092      -1.08121252       0.12576942
N      -20.33486130      -4.30770865       0.37373946      -1.37054222       1.45408342       0.59583601       0.66450944       1.45062987      -0.70795502
C      -21.76869229       9.87227347       5.59327906      -0.21572940       0.61544798       0.25163578       2.59806601       0.57355683       1.27217868
N      -20.10335898      11.29424716       6.31050972       1.32236436       0.13232387      -2.41455967       1.19778007       4.44831132      -2.08943101
C      -22.82251830      -7.73814464       1.13838083      -0.74734123       1.13983484       0.35684696      -0.98016597      -0.38308125      -0.11215477
N      -21.25769974       8.88084453       6.59856421       0.95868448       1.04683536       1.87394621      -2.13730551       3.35702670      -1.48716921
N      -23.57429961      -8.77422431       1.42179692      -0.51726507      -1.26112403      -0.00159106      -2.15780104      -1.05758988       0.55260285
N      -24.38433558      -7.05784300      -0.59832523       0.46062413       1.79861220      -0.59447636      -3.14321849       3.32898534      -1.45954025
O      -19.35720847      -4.01697461       1.07302230       0.01576355      -0.05710149      -0.87796824      -0.80247127      -0.75226292      -0.07119787
O      -20.59816117      -3.53191393      -0.60620019       2.25283522       1.36192560       0.20069318       0.11245271      -1.16966145       1.29186293
O      -21.76047331       7.81199800     -19.19777861       0.56567858      -0.87984867      -2.15638862       0.59228973      -2.37842021       1.63553083
O      -20.53761991       9.21840361       7.52477760       0.05069608      -0.08152522       0.44543131       0.04021600      -1.28728927       0.07927514
O      -24.81895417      -8.16198552      -0.72938032       1.31466273      -0.92146834      -0.00804203       0.20997144      -1.54107473       0.06423533
O      -25.15502867      -6.08187246      -1.04500992       0.66265230       0.18017958      -1.04572080       3.17371087      -1.41606954       1.22005643
H      -23.55156747      -5.04678122      -1.46885714       0.12577419      -0.34211967       0.10907021      -0.04620012       0.93074766      -0.57232141
H      -22.02532690      -4.02563102      -1.17117414      -0.12741273       0.16859084      -0.03504954      -0.18106832       0.08252790      -0.51627919
H      -20.15740491      10.84619508       7.13244376      -0.01219521      -0.04938574      -0.02007109      -0.09944346      -2.05378944       3.34549116
H      -19.69968166      12.22999078       6.38435222       0.63304098       0.47297635       0.08039567      -0.13365072      -0.66460853      -0.68030530
H      -24.47830593      -8.78135960       0.94324485      -0.19778238       0.09078825       0.03400570       0.75449828      -0.78478407       0.55206512
H      -23.38971081      -9.36336529     -23.34476143       0.25513532       0.22157099      -0.45894479      -0.11935380       1.19528286      -2.03967541
C       -6.88653695       9.98674149      -2.28686154       1.05881003       0.15302427       0.93575936      -0.53686815       0.59707738      -2.32423839
C       -7.28000040      10.49570570      -1.07942882      -1.34214955       1.07486368       1.00642042      -1.80040290       1.66423987       3.84052080
C       -6.08383843       8.76618965      -2.22195664       0.42735079      -0.39286552       0.12107832      -1.98335101       2.75643074      -2.49147987
N       -7.30551097      10.62526010      -3.43055205      -1.66898460       0.27236082      -0.28240368       1.98816608      -3.43953998       0.65375600
C       -6.70204602      10.16003697       0.21906369       0.98182664      -0.31257845      -0.09725252      -0.86340942      -0.71688075      -2.75485799
N       -8.51598677      11.37321104      -0.90378561       2.12731572      -1.40639560      -1.01848973       0.50688690      -0.26454214      -1.68331147
C       -5.80259427       9.07520784       0.19867589       0.75821549       0.30566298      -0.33075587      -1.18338057       0.97080698      -1.66361850
N       -7.06246189      10.70486722       1.33436800      -0.77229805      -1.57347835       1.15690481       0.47327704       0.59379109       0.73347351
C       -5.56744476       8.39445987      -1.00934511      -0.16250992      -0.29518318      -1.14372620       1.42352856      -2.26321857       0.39975900
N       -5.04730805       8.81782938       1.30394800       0.31457281      -0.14554346       0.77676286       4.28300571       1.82768011       3.06835154
N       -4.78155274       7.32189984      -1.03013831       0.39045541       1.15183555       0.48831583       0.09086927       0.49046137       1.19742004
N       -5.84503457       8.08746137      -3.45481910      -0.11431543      -0.31728108       0.49634127      -0.07129295       0.39528771      -0.03860839
O       -9.10385281      11.28325777       0.16912252      -0.60422457       1.54177331       0.36678257      -0.35764705       0.47692936      -1.10748317
O       -8.91733777      12.07298470      -1.84950402       0.31287990       0.53940916       0.45980689       0.66258757      -0.97236267       1.23534055
O       -4.51854260       9.79021346       1.97502748      -0.03047380       0.28195798      -0.05134624      -2.24332103      -1.04564983      -1.27414328
O       -4.68923005       7.70479958       1.60133277       0.34621815       0.36595695      -1.08928954      -0.44478823      -1.72521609      -0.18653208
O       -5.15849327       7.07952569      -3.49075034       0.08206124       1.55879521       1.01729050       0.33961013      -0.51227609      -0.12629836
O       -6.33434464       8.53988257      -4.49205368      -0.39642583      -0.87019728      -1.44407199      -0.03598805      -0.05989779       0.30529924
H       -6.93269538      10.12439354      -4.26843672       0.37203334       0.07363167       0.18337220      -0.78903203       1.06688487       0.58678791
H       -7.63835303      11.54780822      -3.35800624      -0.02688924      -0.05537359       0.18822927      -0.42037635       0.70017406      -0.01733990
H       -6.45671423      10.44288661       2.09119492      -0.11140963       0.12220746       0.34560314      -0.44459333       0.77105305       0.57358470
H       -7.85485502      11.34998952       1.36702228       0.01905290       0.10654026      -0.30718269       0.63131068      -0.44320902       0.42188288
H       -4.42005945       6.94648193      -1.86728724       0.23764615      -0.06996830      -0.02950288      -0.07707367      -0.36863714      -0.77504993
H       -4.66196962       6.87709692      -0.16984917       0.24517284      -0.11635813      -0.00220298       0.67963992      -0.76415903       1.14116132
C      -21.13356567      38.87705878      35.35746575       0.67966632      -0.51163226      -0.84555804       0.43040444       0.80643814       0.54685045
C      -21.11438167      37.92963970      34.30702290       0.52597019       0.20576631      -0.98757379       0.92436498       0.85022603       0.50198750
C      -21.89569426      38.69340815      36.55586915      -0.33502875      -0.91136017      -0.20217106      -0.23616019      -2.44686250      -2.15735513
N      -20.39784410      39.96769210      35.18583130       1.05542862      -1.01259755      -0.65979459       0.59309061       0.11961378      -1.41904313
C      -21.76520324      36.67813465      34.38026469       0.58389574       0.65924956      -1.05529485       1.22484215       0.61906237       0.24962325
N      -20.18889095      38.17809946      33.18723664       0.03945804      -0.27640020      -0.16976501      -2.27499354      -1.53550180       0.49242635
C      -22.31226666      36.46337283      35.65861264       0.21247932      -0.94398886      -1.12074963      -2.05227282      -1.76677675      -0.94909339
N      -21.65346500      35.73818443      33.43763500       1.05256266      -2.18996605       0.58145212       0.40996752       1.57618670       0.40909200
C      -22.54999348      37.38373202      36.65146983      -0.63960453       0.92836380      -0.20722359       1.13428242       2.78606951       1.18713648
N      -22.95727609      35.14883335      35.84672178      -0.68689804       0.14824736       0.13497468      -0.77076546      -0.50660956      -3.17099688
N      -23.29221786      37.17293107      37.71466749      -1.14236216      -0.10712505      -1.89269848      -2.17077889      -3.63942797       0.84471078
N      -21.94292352      39.61525439      37.57218204       1.49873310       1.49466486      -0.52470136       0.31570370      -0.00706243       1.09235044
O      -19.07164235      38.60073103      33.23951367      -0.06542911       0.99660382      -0.07947402       1.13714729       0.93904082       0.74376601
O      -20.69833588      37.78394822      32.15995793       0.38397060      -0.25154010       0.70688123      -0.08413866      -0.33062096      -2.16400326
O      -22.56532710      34.49661896      11.12833512      -0.67288605       0.88285901      -0.56875524       0.29953059      -1.03557953       2.28244568
O      -23.74615413      34.65881890      34.99039136      -1.63047576       0.20108892       0.19293348       1.53137597       2.34161431       1.41941838
O      -22.47566975      39.24590066      38.66980083      -0.09191969      -0.35718607      -0.03855608       0.90726874       2.16688004      -0.96151868
O      -21.40028071      40.71440437      37.40486465       0.28802000      -0.50082084      -0.27155400      -0.89170528      -0.81195938       0.72997514
H      -20.31217779      40.70608330      35.82836942       0.07361004       0.30583964      -0.22652704      -0.40015165       0.31466596       1.02532199
H      -19.75135316      39.97582385      34.41992034      -0.15319085      -0.56130671      -0.25723524       0.10686705       0.04712029       0.00634935
H      -22.05998925      34.87081227      33.66279196       0.12002793       0.07861766      -0.13231390      -0.32659805      -0.96185001      -0.56191860
H      -21.13019585      36.01427392      32.60214730       0.25142870       0.10606092      -0.08454907      -0.67394401      -0.67488941       0.42064141
H      -23.36241558      37.82025013      38.49602973       0.13134240       0.39275347      -0.08406335       0.25419905      -0.24130405      -0.80170491
H      -23.83051043      36.26607288      12.15031654       0.25085763       0.41863206      -0.18577444       0.99999602       1.91173656      -0.11683676
C      -60.60223070      23.37395398      21.63451871      -0.63458812       0.47047651       0.16119814       5.05899099       1.72229027      -0.91368375
C      -60.54321921      22.31503781      20.74172524      -1.15746633      -0.52156365      -0.02919783       1.09076377      -1.30864725      -1.43496380
C      -59.36209016      24.18102075      21.79951263      -0.54592837      -0.21094729       0.83465711       0.18055060      -0.09647710       0.39663057
N      -61.65263166      23.67925762      22.26408300       0.77253154       1.68737618      -0.68005521      -0.31806002       2.41475343       2.45466107
C      -59.31074222      21.81600817      20.13964186      -0.59409258       0.51177010       0.07381106       0.08125411       0.01144251       1.62591192
N      -61.69025520      21.56324011      20.53458112      -0.20954772      -1.37844238       0.60007398      -2.10255884      -0.05049721      -0.18096816
C      -58.16512941      22.53414353      20.55555722      -0.79689163       0.56090647      -0.00237660       3.54748680      -0.83430251       0.54450498
N      -59.29726741      20.63146498      19.49880928      -0.55812066       0.39962102      -0.62648943       2.21012649      -0.62173489      -2.60247955
C      -58.09965593      23.71168081      21.38047576      -0.72346851      -0.28031547      -0.34902306       0.10100778      -1.12600830       0.15366463
N      -56.75127876      21.82545337      20.36402027       0.13004652       0.40973428       0.55749737      -0.37726929       1.93213978       0.53993955
N      -56.91463996      24.19802897      21.82232928      -0.07525579      -0.15165695      -0.73390359      -4.06863071      -0.07967691      -0.56668598
N      -59.28832457      25.38447349      22.62006372       0.86359840      -0.25205407      -1.20530799      -2.57053775      -1.09572474      -0.89780911
O      -61.65827721      20.50582964      19.96078331      -1.02968619      -0.07997626       0.46542102       0.27903021      -2.03452923      -0.96580901
O      -62.80640522      21.95161900      20.89303015      -1.07028565      -0.94403184       0.15989941      -0.24560510       1.00340380       0.68329007
O      -56.75115638      21.09858536      19.39794062      -1.10886946       0.44840856      -0.71491690       1.12265457      -0.76770554      -0.23433132
O      -55.70017501      22.05919158      21.05747718       0.42403124       0.75694707       1.07986562      -3.07634474      -0.88520448      -1.70141367
O      -58.41196555      26.17881983      22.45191856      -0.73229614      -1.04687144      -1.07165881       1.63376127       0.92150046      -0.09371284
O      -60.23246313      25.61827110      23.36965209       1.70433178       0.32873927       0.27948758      -0.56267919      -0.14613798       0.68238020
H      -61.56707862      24.49598397      22.86301687       0.39373731       0.02611765      -0.21281316      -0.56412168      -0.09909800       0.09245707
H      -62.42662713      23.22204686      21.91859835      -0.09058874       0.07125554       0.00105553      -2.72873010      -0.65939125      -0.05748521
H      -58.40056671      20.29285781      18.99160408      -0.01319632       0.42362426      -0.10212718      -1.97734864       1.37136484       1.61108100