1296
Lattice="-37.4200604354278 12.45034506362501 52.55872183470933 0.0 16.964984490572572 -0.0266078098792666 0.0 0.0 -29.50732135490102" Properties=species:S:1:pos:R:3:momenta:R:3:forces:R:3 energy=-1487791.590456243 free_energy=-1487791.590456243 stress="0.00673710991643099 -0.0018333061575583791 0.0011562441660015802 -0.0018333061575583791 0.00200634653658865 0.0007784455094362113 0.0011562441660015802 0.0007784455094362113 0.002981945093685067" pbc="T T T"
C      -23.49260157      23.07876502      31.64382973      -1.11989661       1.33631515       0.80473664      -1.20062129       0.97295998      -2.70252354
C      -23.66262558      24.38055143      30.97877632       0.22542818       0.13720085       0.42381601       1.62784003      -0.07603200       0.80311951
C      -24.60388050      22.16848951      31.52443867       0.50147823      -1.19147029      -0.84689893      -0.32097321       0.59776583       0.18398427
N      -22.33104441      22.64704094      32.03639365      -0.17018180      -0.41111033      -1.96715038       1.98314067       0.29238170       1.05631173
C      -24.72618388      41.68618053      30.15309676      -0.07495672      -0.82309991      -0.68441878      -1.56317603      -1.45984658      -1.96748145
N      -22.57144760      25.35682774      30.99012595      -0.57473288      -0.56908659       0.53796860      -0.81025955      -1.21347305       2.51739064
C      -25.72431533      40.63986297      29.92033064      -0.48488584      -1.37133283      -0.38312776      -0.28494699       1.85954961      -0.52076272
N      -24.78932614      42.79538467      29.43428603       0.37017279      -0.91232662      -1.22460880       1.09951713       0.23240110       0.95646298
C      -25.82064644      22.52340969      30.71295622      -0.13535459       0.72839107       1.63620578       0.52834703      -2.02715527       0.32427850
N      -26.67733438      40.83691988      28.85060935      -0.71822088      -0.28111460       1.65367036      -1.28314656      -2.00160977       0.10117737
N      -26.88272373      21.69323675      30.61175082      -0.56348149      -0.25449937       0.14430968       3.16624615       1.73193487       1.16507221
N      -24.49731825      20.91837717      32.18932287      -0.58661614      -0.63722799       0.54772021      -2.82231235      -0.07169704       0.30110518
O      -22.45672996      26.22132221      30.14301638       0.32254886      -0.20895867      -0.48542079       0.87602170      -0.04635958       0.25536807
O      -21.88498533      25.27195796      32.01533738      -0.24635725      -1.49374059       1.22118455       0.76104303       0.59032729      -1.16267646
O      -27.29011807      39.81961408      -1.06487968       0.01302673      -0.60576755       0.35784603       0.96286073       2.03798766       0.22007856
O      -26.90595536      41.94831900      28.37514156      -0.21360201       0.61513012      -0.08670803       0.19595518      -0.15071031      -0.12908622
O      -23.60945169      20.53834715      32.93852776      -1.20275046       1.82071210      -1.33658526       1.75724675       0.93590561      -0.21368773
O      -25.49254073      20.19286319      32.09737333      -0.66124366       0.23315366       0.75356766      -0.54402880      -0.57336387      -0.53367529
H      -22.23139012      21.67745845      32.26795667       0.10694511      -0.07379713       0.03630605      -0.26728920      -0.25877832       0.23507598
H      -21.43420211      23.16578141      32.03502064       0.26990617      -0.16719380       0.78983482      -1.57949958      -0.07052556      -0.31478998
H      -25.56801897      42.99075427      28.86747991      -0.04240543      -0.04394417       0.47450375      -1.09702586      -0.13602171      -0.48892795
H      -24.00740470      43.43886388      29.43389794      -0.61721617       0.03534024       0.15016609      -0.08782613      -0.53093736      -0.02682183
H      -26.89807777      20.95042064      31.21026342      -0.37695236      -0.26836336       0.19187247       0.28162969      -2.16719294       1.71033965
H      -27.68196226      21.88322848       0.61975460       0.17370178       0.13322171       0.44413756      -1.65696943       1.07079265      -1.70667034
C      -38.42663614      18.34749058      19.31316852      -0.02483906       0.13827992       0.44789930       3.95946801      -1.12135482      -0.16006125
C      -38.65821564      18.45982906      20.70640675       0.04702941      -1.01723345       0.31438450       1.46924494      -0.91223809       0.74145346
C      -39.21818145      18.99767080      18.39500609       0.46747111       0.24418709       1.08804996      -1.16117119       0.68710583      -0.36533741
N      -37.32030179      17.68674475      18.85410787       0.48017597       0.09389378       0.20254109       0.78246674      -0.05947472       2.38693668
C      -39.95591368      18.73749122      21.17925368      -0.05803607       0.64256886      -0.00026206      -1.30196397      -0.78474776      -0.31358960
N      -37.52467553      18.06289082      21.59390427       0.07620922      -0.48343894      -1.81201659      -3.09750093       0.66634261      -0.04189379
C      -40.90492784      19.09757104      20.15611632       0.37887651       1.14248167      -0.76778898       2.08104072       0.66576808       0.10433918
N      -40.37984489      18.47142573      22.43871318       1.24385861      -0.13735070      -0.73671710       1.28338396       1.25643772       0.56782160
C      -40.48145958      19.47763549      18.81868323      -0.95088142      -0.43413099       0.58451054       0.94642796      -0.94128966       2.12185122
N      -42.18156847      19.44078836      20.50797468      -0.36249686      -1.74553772       0.06863307      -3.15063439      -0.96349960      -3.20494054
N      -41.17193901      20.26521891      18.07803568       0.44169590       0.28237472       0.11024079      -5.19289082       1.07780575       1.06795093
N      -38.77826201      19.29564791      17.05712993      -0.53747246      -0.38001301      -0.19088828      -2.78278682       1.53375472       0.80446706
O      -37.90214734      17.91364422      22.78939702       0.09717383      -0.12658001      -1.90972664       2.57189860      -0.12957473      -1.49965644
O      -36.38423025      17.94765069      21.13427759       0.52340169      -1.75401197      -1.44353357      -0.84150345       0.13894427       2.00821410
O      -42.64601039      19.40436432      21.59977176      -0.47704210       0.40007458      -2.32717795      -0.06315567       0.31761395       2.01506254
O      -42.98791239      19.58446752      19.50260643       0.12521368      -0.83926597       0.13254589       0.25062145       0.31240919       1.51020120
O      -38.07334696      18.52145224      16.47974100       1.87582560       1.16203069       0.72092816       0.90243590       0.10266934      -1.13308590
O      -39.31383277      20.34296946      16.56112574       0.43089034       0.27746395       1.04268209       2.52274123      -2.02172360      -0.70143586
H      -37.10783024      17.81832058      17.92865284      -0.26822723       0.11300276      -0.14357708       0.05072064       0.25558527      -2.48593932
H      -36.44248306      17.44831341      19.40890095       0.49193573       0.03330048       0.22173230      -2.44949853       0.51737761      -0.33535423
H      -41.19889836      18.96992090      22.79244537      -0.13244330      -0.05220554       0.00912694       0.33393995      -0.41394964      -0.55436719
H      -39.56977765      18.44841178      23.07281735       0.03479348       0.05146030      -0.03463633      -0.91493930      -0.30014691      -0.23959602
H      -40.77013464      20.48350963      17.22939912      -0.18271355       0.09854452      -0.29480945       0.63493766       0.89350307      -2.10187047
H      -42.22524722      20.44325776      18.30787923       0.29628879      -0.09123210       0.26287239       3.02910506      -0.65454115      -0.46320118
C      -38.09647779       8.54236229       7.57580014      -0.67769507      -0.60339118      -0.18093629       1.51972015       2.74400057      -0.04015595
C      -37.22917050       9.68001987       7.98995794      -0.76471608      -0.24133741       0.04441251      -3.05991677      -3.36942141      -1.42300668
C      -39.49728070       8.78386351       7.34618564      -0.35774397       1.57153507       0.89874905      -1.26623270      -1.28833998       0.39256027
N      -37.59091975       7.38991957       7.33462923      -0.71348580       0.03355531      -0.26701319       0.20267418      -2.97432125      -0.43513644
C      -37.88869936      27.90680589       8.09333506       0.38154912      -0.27594285      -1.58680752       5.45725634       0.21064987       2.55037232
N      -35.86145973       9.35233152       8.06230862      -0.07815886       0.12032695      -1.56894302       3.21595133       2.42143466       1.51114498
C      -39.19482132      28.09228970       7.73448735      -0.19191445      -0.00172212       1.14472529      -2.84462260       0.34624802      -1.08592870
N      -37.09900265      28.84249297       8.70326173       1.03703529       0.48863619      -0.68412789       0.87933039      -2.11093918      -1.05729685
C      -40.13657775      10.02996373       7.56508343      -0.68574853      -1.45646530      -0.16411345       1.48055527       1.50061958       1.25751713
N      -39.62729174      29.42299595       7.40418494      -1.28079126      -1.31920795       0.79945031       1.38615672       0.24838753       0.66574748
N      -41.42915761      10.26337432       7.77253003      -0.70855262       0.64430892      -0.54786713      -0.86360356      -1.44137059      -1.74229312
N      -40.38626902       7.69052179       7.10562653       0.28636587       0.93677151       0.72341261      -0.63430442      -2.10834623      -0.90575224
O      -35.12109425      10.14601647       8.78571001      -0.39575333      -0.07042294      -0.19866784      -1.84809473      -2.10609021      -2.05802463
O      -35.34211968       8.41077923       7.44779588       0.58342741      -0.30724838      -1.32240800      -0.88415803       1.29131812       1.15630464
O      -40.80575243      29.64526841     -22.38273634       0.73897126       0.76020521       0.14961123       0.48225501       0.23666943       0.41313909
O      -38.73607057      30.30248048       7.37767010       0.25063629      -0.58920263      -0.63915214      -1.71610059      -0.71618109       0.14421099
O      -40.01506980       6.44540986       7.18397191      -0.93307785      -0.39027254      -1.48871635      -0.91520077       3.77065171      -0.07908401
O      -41.55456650       7.97982519       6.72541927      -0.00915780       0.10653288      -0.19562819       1.81327139      -1.23072244       0.55902776
H      -38.26172005       6.70878868       7.00991944      -0.08857352       0.27680839      -0.13828737      -0.00373227      -0.26378064       0.18341463
H      -36.62033152       7.06887885       7.46217387      -0.26336770       0.22443413       0.08587530      -0.90737633       1.25756415      -0.04647864
H      -37.46768893      29.73052443       8.55743846       0.11898238      -0.11547083      -0.34183404       0.07165975       1.95615102       0.13750465
H      -36.04378830      28.61832521       8.81849269       0.29562706       0.23990430      -0.27186196      -2.48053740       0.21693730      -0.07910623
H      -42.07454728       9.61448570       7.23777614      -0.12161532       0.30808069      -0.11888772       0.88239393       1.07853648       1.30332078
H      -41.68951391      11.22165210     -21.53373463      -0.23486705      -0.09980146       0.03040607       0.01469181      -0.34758887      -0.18285855
C      -23.60115698      -2.23526975      30.86158464      -0.68561413       0.75163658       1.40646652      -1.08780261       1.12625112      -1.55428612
C      -23.49897454      -1.56082568      32.15512862      -0.33762360      -0.92664627      -0.51061607       0.27449913       0.22820596      -0.55461398
C      -23.90158941      -3.62450099      30.78160189      -0.22889762      -0.86038137       0.18271168       1.89974694      -1.67423378       1.72727440
N      -23.56475312      -1.58321391      29.69105468      -0.85138640      -0.65590772      -1.08613363       0.05915727       0.36231325       0.72118156
C      -23.33874225      -2.28717052      33.39971337      -0.71541842       0.37926014      -0.70181468       1.00507851       0.28667229      -0.41187492
N      -23.35368113      -0.13438144      32.16440488       0.46873956       1.44390165       1.01548578       0.88614973       0.41102126       0.37575800
C      -23.59921159      -3.70340369      33.24521342      -1.11879442       0.76166314       0.65281327       1.43509197       1.67584717       1.08000524
N      -22.88824547      -1.60220014      34.44737486       0.39494901       0.46892232      -0.21717565      -0.81078626       0.84781666      -0.08371674
C      -23.60628256      -4.39220046      32.05208502      -0.81167578       0.26580686       0.00136182      -2.46318344       2.52947144      -1.33452597
N      -23.80000267      -4.44418328      34.44207062      -0.50132632       0.44834706       0.64998928      -1.25234718       0.60375038       1.01598127
N      -23.71486465      -5.67772687      32.06206409      -1.19241113       1.24195414       0.08277827      -1.60159770      -2.62753117      -3.73640086
N      -24.14732106      -4.32101920      29.54034526       0.41393946       1.43027130       1.69094061      -0.41041596       1.53313659      -2.00192144
O      -23.11797656       0.51322313      33.22368449       0.66488484      -0.21392425       0.55057351      -0.41936288      -0.64221858      -0.79511372
O      -23.37302207       0.48045270      31.11283368      -0.35896537      -0.21576973       0.10420870      -0.53054327       0.12697531      -0.48685220
O      -23.13322520      -4.13448906      35.42371626      -0.06914070       0.77533301       0.87090215      -0.48634510      -0.75908051      -0.23386446
O      -24.79057519      -5.19860252      34.47383312      -0.05865512       0.93382252       1.67678280       1.37737322      -0.01142936       0.46622855
O      -24.20888694      -3.71677515      28.43141505      -2.22625532       0.72851223      -0.60844405       0.58179566       0.08214749       1.96460686
O      -24.41393212      -5.52630243      29.50242044       0.85855846       0.45437975      -1.36315436      -0.19147711      -0.11142329       1.41710080
H      -23.71256336      -2.15765724      28.84041248       0.05955551      -0.11241396      -0.10570740      -0.06807745       0.45859383       0.60154311
H      -23.52414335      -0.55756316      29.72776604      -0.18130856      -0.57359108      -0.40839988       0.08973895      -0.74305632      -0.11927362
H      -22.63838921      -1.99791370      35.36124435       0.21777457       0.30964372       0.33627529      -0.28466942      -0.16101321      -1.07252005
H      -22.85338145      -0.52122245      34.26059029      -0.16978906      -0.15286588       0.04968910      -0.07542512      -2.46573870       0.68934611
H      -24.21289871      -5.90827939      31.11732587       0.16347157      -0.10307544       0.17285501       1.71419498      -0.82213310       2.02928932
H      -23.95483802      -6.23598930      32.85923639      -0.06747774      -0.12144098       0.20223481       0.16543756       0.23880206       0.25403301
C      -25.17108611      -3.42956677       9.10813247      -0.05978655       0.71252834       0.39718605       1.35810148       1.42288457       2.88833128
C      -23.86660587      -3.39441045       9.65764398      -1.52872927      -0.10760009      -0.08277680      -1.11393774       1.01133287       0.57779114
C      -26.15738497      -2.55708370       9.59778494      -0.06167213       1.04181527      -0.30072171       1.50027807       1.73570558       1.54066748
N      -25.50577616      -4.35345738       8.28811081      -0.84599102      -1.09540819       0.56446348       1.28418532      -2.58209509      -2.40074184
C      -23.57733511      14.55565738      10.63738303       1.43783082       0.62436922      -0.25788614      -0.65827596       0.36372438      -0.00712317
N      -22.82706674      -4.31771591       9.14889101      -0.33656107      -0.41697032      -0.67293336      -1.30397647       3.72930340       2.22921647
C      -24.65856378      15.49418786      11.12052299       1.21056191       0.23847518       0.41406692       3.30357638      -0.52382199      -0.75208506
N      -22.35719353      14.61497360      11.16087460       0.40109310       0.69161148      -0.81067329      -0.74129478      -1.18757864      -1.64399774
C      -25.85957790      -1.39242430      10.43642364       0.18445347      -0.93587940       0.19391192       0.08708131      -1.80045006       0.38250178
N      -24.13451833      16.71371989      11.75498516      -0.77574015      -0.11775226       1.01610112       1.31801009       3.52966919       0.08845854
N      -26.69370246      -0.38766889      10.56120063      -2.14089099      -1.14962773       0.81926541      -3.18648731      -0.74124060      -2.42650933
N      -27.42416791      -2.63166039       9.08138184       0.36944045      -0.92168145       0.59083043      -2.46983528       0.52997248      -1.57491739
O      -21.78550538      -3.71717297       9.02488602       0.01581426      -0.93661467      -0.24066269       2.07694763      -0.68123771      -0.84629026
O      -23.01868099      -5.48031682       9.04054210       0.22283421       0.26486227       0.26940456      -0.22865308      -2.14714536      -0.81333006
O      -22.95440289      17.15023070     -18.03758051      -0.92951944       1.48296070      -0.19544146      -3.07961352      -1.89943999       0.92298720
O      -24.87311620      17.46041898      12.44887391       0.55355533      -0.21352926      -0.42056776       0.72663751      -2.33031071      -1.37589978
O      -28.39364560      -2.36668818       9.76124192      -0.63227632      -0.23705402       1.13132837      -0.31805544       0.32362585       1.30449286
O      -27.59051944      -2.90457270       7.89242654       1.07107579      -0.86709771      -1.03842459       0.40929535      -0.64661815      -0.91568546
H      -26.28520159      -4.12166729       7.75975349       0.04605365      -0.15240072      -0.18369660      -1.92173046       0.03328232      -1.33741343
H      -24.76708748      -4.76711096       7.73444596       0.09076998       0.39785003       0.52015233      -0.13719003      -0.28023889       0.33813862
H      -22.13958937      15.05969445      12.00241766      -0.03231783      -0.41517172      -0.20709018       0.31954523       0.90800636       0.97720699
H      -21.63341818      14.18323189      10.61545806      -0.03782715       0.33343370       0.23389426       0.17845934      -0.12170059       0.28838043
H      -27.59835448      -0.45515359       9.98409231      -0.20424961      -0.33400928       0.04322070       2.03821482       0.48509463       1.69322956
H      -26.46209426       0.49419256     -18.56854907       0.06266602       0.28015102       0.05249468       0.35706276       0.58699123       0.61323311
C      -10.31692502       8.41250361      -3.31559663      -0.02002619       0.24191878       1.71967954      -2.37021090       0.36936841       0.18170092
C       -9.48268406       7.58372562      -4.07195545       1.03775025      -0.47198111       1.58750714       0.29713765      -1.21424344      -2.50264758
C       -9.79569729       9.62339368      -2.84402279      -0.93706137      -0.73845916      -0.29207825       1.40532018      -0.26221766       1.33548551
N      -11.62040236       8.07433775      -3.12824505       0.10370484      -0.63184863      -0.65378327       3.35600365      -1.28871695      -2.89369254
C       -8.48064108       8.12263154      -5.00657720       0.83016271      -1.24618178      -0.02429254      -1.95343963       0.96973332       1.85738366
N       -9.92864126       6.23629966      -4.34407527       0.65104272       0.13512889      -1.48435176       2.12162708      -1.79948009      -0.32639243
C       -8.03766057       9.44942486      -4.49743087      -0.82695990       1.37489471      -0.46236900       0.77162899      -3.12367738      -2.39053037
N       -8.19669359       7.54802876      -6.16814517      -0.11715527      -1.65749230      -1.19180898      -0.56848612      -1.12045522       0.42930303
C       -8.48437949       9.99211509      -3.31855024       0.01821721       0.32795136      -0.36693499      -1.24666832       1.92667832       2.09355050
N       -6.90385995       9.94425054      -5.08555502       0.35923598      -0.44679744      -1.15913248       1.99055036       1.15002505      -1.82367775
N       -7.84810908      11.02773141      -2.71442224      -1.35642807       1.13148417       0.46464007       1.28561910      -0.34571878       1.06120457
N      -10.24799517      10.01284697      -1.51626299      -0.09368729       1.67811608      -0.09858449       0.89987680       1.28074226      -1.60570101
O       -9.07263584       5.47038784      -4.86545687       0.57542268      -0.12686837       2.06432391      -0.86010470       1.07656703       0.08194410
O      -10.99550608       5.78039807      -3.98505321       1.00514281       0.64000095      -0.91888416      -0.54582060       0.32498854      -0.11832994
O       -6.42071377       9.35132311      -6.10015462       0.05566080      -0.80966530       0.60879368      -0.23830370       0.94287217       1.12026107
O       -6.37302425      10.99369140      -4.67574518       1.84676378       1.58458637      -1.49488627       0.12903278      -1.07180435      -0.54209455
O       -9.47132049      10.68529313      -0.82884491       0.98916593      -0.73652428      -1.04575820      -0.29962192       0.06069727       0.88778426
O      -11.37789187       9.78343202      -1.15354706       0.27423310      -0.37416046       0.13427754      -0.69629893      -0.65014925       0.25355259
H      -12.10648336       8.39447526      -2.37803334       0.22300185       0.12685274       0.01594978      -1.54198655       1.13518124       2.12280731
H      -11.77153226       7.20363653      -3.63409130       0.42077657       0.03139059      -0.07503453      -0.91708678       0.00291514       0.93122037
H       -7.60654910       8.05802143      -6.81513383       0.09694697      -0.32952065       0.26221711       0.11556394      -0.36053803       0.32061862
H       -8.56017062       6.55965402      -6.36611133      -0.44346620      -0.16022323       0.25209989       0.83870500       2.17937183       0.70503024
H       -8.34324291      11.24117992      -1.82168846       0.07082077      -0.15652080      -0.04603018       0.98284536      -0.11891720      -0.75892730
H       -6.77866320      11.09012712      -2.77824342       0.30618989      -0.58881477       0.15336947      -3.02606737      -0.00749239      -0.45712632
C      -17.25401104      33.97718499      39.29692354      -0.71072941       0.50383207      -1.51305004       0.68749862       0.65711903       1.26369578
C      -17.15024928      33.08567386      38.24451258       0.03342396      -2.74977789      -0.03806955      -0.91119787      -1.78270478      -1.64389685
C      -18.52799191      34.32122777      39.77868369       0.97357223      -0.06287209       0.96231892      -3.17141215      -0.26221516       0.10384089
N      -16.17616085      34.49437517      39.90534027      -0.08757675       0.97337006      -0.05371820       0.74925844      -0.55143383      -0.39883170
C      -18.24990279      32.65910113      37.46421551       0.24279833      -0.79125133      -0.15122745      -0.03604822       1.17209150       0.03246201
N      -15.86306445      32.70024118      37.68142359       0.93547418      -0.92052116      -0.02384401      -0.94680148      -0.76107817       0.60699316
C      -19.57377569      33.12462610      37.77405954      -0.69129844       1.41464520      -0.11050610       2.46688197       0.29406817       0.93927891
N      -18.08606341      32.05632122      36.28693701      -0.61457637      -1.59541366       0.49296034       1.38829937      -1.32154011      -0.89179040
C      -19.73209487      33.93070902      38.94346942       0.10666764      -1.61044809      -1.06697551       1.12944634       0.31410728       0.10820816
N      -20.59598413      32.98361170      36.80726085       0.27238723       0.63433163      -0.34853500       0.07486217      -1.37294518       1.01380623
N      -20.96342434      34.33611847      39.19973344      -0.07918135      -0.48263592       1.14872691       0.72014205       0.97905480       1.23886926
N      -18.68076614      35.02888448      41.10281319      -0.09776759       0.70684486       0.05343974      -1.19164205      -0.41985852      -2.55126264
O      -15.56104728      31.57468777      37.30829742       1.81250423      -0.20764937      -2.32430072      -0.74046463      -0.17865825       0.30248236
O      -15.11074457      33.61588378      37.59567180      -0.09397105      -0.32975625      -0.11332743       2.34981982       2.10498204       0.10253960
O      -20.66098165      31.90144736       6.67374987      -1.18317108       0.92188540      -0.12705131      -0.45894163       1.34816326       0.09057013
O      -21.42328415      33.87948042      36.72125842       0.76974814      -1.09874865       0.47367809      -0.49755775      -0.19287384      -0.81343617
O      -19.81925748      35.33961527      41.49167234      -1.81660003      -0.45270314       0.35383972       1.00707660      -0.54074326      -0.36564314
O      -17.67497341      35.33821168      41.72332765      -2.23081177      -0.40351082       1.34467426      -0.32870732      -0.02385344       0.63216581
H      -16.35111353      34.93416397      40.80521013       0.04348882       0.04643723      -0.24643895       0.33888360      -0.26087295      -0.39346239
H      -15.27591143      34.18239344      39.56003743      -0.40500380       0.12616092      -0.38997519      -0.35305176       0.40944330       0.34354648
H      -18.86155358      31.45272939      36.13045347      -0.28948436       0.00717817      -0.15674509      -0.33813210      -0.43836648      -0.98535095
H      -17.18665250      31.72241963      35.88515875       0.07371207      -0.08175515       0.13571530      -1.05000056       0.49857295       1.09336271
H      -21.03137689      34.81559122      40.09720464      -0.06409093      -0.32611186       0.03055095      -0.79975849      -0.33536110      -0.34816177
H      -21.68686926      34.24409968       8.97954155       0.11441790      -0.21037852       0.08696490       0.14227453       0.16757388       0.84266819
C      -47.15216785      37.08554106      38.16055227      -0.60246342       0.15723395      -0.35940095      -2.29342856       4.54544737       1.47797520
C      -48.18366793      36.55984880      37.33568665       0.40715664      -0.22272074       0.56209240      -0.38090951       0.99926414      -0.14358197
C      -46.17656835      36.26608883      38.73159280      -0.72236411      -0.35106045      -0.85077284      -0.16756057       1.73517626      -0.64584085
N      -47.24419253      38.40658594      38.54569795       0.78614246      -0.80659557      -1.21666578       1.68128101      -2.96459914      -0.35311321
C      -48.10725416      35.23330710      36.92849571      -0.70063681       0.27843212       1.55288186      -1.20571619      -1.14925012      -1.08327951
N      -49.39553792      37.33437065      37.03751026      -0.70246153      -0.08245834       0.37199038       0.86223217       0.16363643       2.25223046
C      -46.97955619      34.44703598      37.26555629      -1.16020195      -0.79937933      -0.01886041       2.72077767       0.82934371       0.08773001
N      -49.09464683      34.66012504      36.24232969      -0.60547426      -0.09104844       0.10216770      -0.92275656       0.34060614      -2.90868907
C      -45.90055469      35.11469188      38.00805617      -0.14431172       0.22766351       0.56842960       0.97710355      -3.20701479       0.47362474
N      -46.59848339      33.26164154      36.51461531       0.04784878       0.09406846      -0.26656456      -1.58839631      -0.21470059      -0.07531507
N      -44.69598665      34.57652705      38.18386432       1.11855761      -0.36457342      -0.23809839       0.04721686       0.97984707      -0.29440455
N      -45.28205426      36.87153715      39.68410249       0.90050937       1.99628845       0.09930095      -0.77605343      -0.78254937       0.01584533
O      -49.55758861      38.42265490      37.57594781       0.21649926       0.29481760       0.79975560       0.71522799       0.77792615      -0.16596423
O      -50.32054536      36.85039892      36.44232417       0.68085692       0.23176240       0.49802485      -0.98984347      -1.14615605      -1.88379621
O      -47.29686013      32.94129058      35.51029516      -0.61862683      -0.24614192       0.49175642       1.31940399       0.13667821       1.23607680
O      -45.68527044      32.56472559      36.93027068       0.28156854      -0.57069000       0.50485952      -0.43857190       0.29769689      -0.70379413
O      -45.54361289      37.95960789      40.13558034      -0.23207339      -1.78078199      -0.02676863       0.53986763       1.03549637       0.55832140
O      -44.39228440      36.21041019      40.14740010      -0.33029842       0.85101753      -0.27620116       1.72042898      -1.07300931       0.32703904
H      -46.56281530      38.75656367      39.21051028       0.17234959       0.01381856       0.00151876      -0.21388218      -0.07367739      -0.11581519
H      -47.87677529      38.99495966      38.11217416      -0.07021886       0.04595081       0.13688068      -1.45009158       0.76326865      -0.78198918
H      -48.66604280      33.82631298      35.69866309      -0.09827595      -0.27035299      -0.25405058      -1.60659521       1.67012847       0.97461706