1296
Lattice="-45.77790115979648 -36.79127597574362 45.64968242056992 0.0 21.18829605377619 2.0989237091540276 0.0 0.0 -25.657251562394354" Properties=species:S:1:pos:R:3:momenta:R:3:forces:R:3 energy=-1487777.1599080872 free_energy=-1487777.1599080872 stress="0.003316226885068459 0.0010765673306915443 0.0006885758286746522 0.0010765673306915443 0.0032156567399326736 0.000461484817128275 0.0006885758286746522 0.000461484817128275 0.0026296621000476994" pbc="T T T"
C      -27.95093288     -36.18745156      23.19670626       0.01137313      -0.52637459       1.21335240      -2.44988401      -0.85122465      -1.66186394
C      -27.99252704     -37.54463117      22.64679214       1.63253272       0.30639034       0.25592645       2.86303398       2.23686153       1.99537707
C      -28.89875502     -35.31170721      22.45554211      -0.57818206       0.23915734      -0.04909845       1.78256083       1.28436302       1.15112095
N      -27.21892209     -35.84138769      24.26232349       0.20212378      -0.15780965      -0.56967958      -0.21826586      -0.40705881      -0.81978548
C      -28.88337422     -16.80595214      23.76544360      -0.22465508       0.20321576       0.20380613      -1.45350678      -0.70589440      -0.51510066
N      -26.70860414     -38.21626371      22.92350646      -1.43672631      -1.78105296       0.46606407      -4.29906514      -2.82528394      -6.35916914
C      -29.96163016     -15.96009213      23.35562195      -0.54427479       0.39279148      -0.79712571       0.39161266       0.75903185      -0.85693823
N      -28.82318645     -18.05179256      23.33890008       0.96259640       0.49596337      -0.65242725      -0.19594508      -2.70350058       0.03585786
C      -29.82342938     -35.72429720      21.47157774       0.67779407      -1.23682179      -0.14226279      -0.01387324      -3.62980983       1.04271356
N      -30.90252419     -16.44270888      22.30661607       0.07804394      -0.59224371      -1.46981631       0.68041076      -1.51524725       0.59255692
N      -30.68268065     -34.96325295      20.88378248      -0.07027236      -1.08273575       0.46415453       0.23510474       2.07599085      -0.09735333
N      -28.80929893     -33.89724320      22.71249173      -0.38668692      -1.97778771      -0.72063206       0.70336895       0.71960565       1.74155376
O      -26.38548214     -39.04791381      21.98734815       0.64963137      -0.21422786      -1.25045479       0.83868078       1.49486872       2.58232538
O      -26.13633157     -38.01373742      23.90828490      -0.08390120      -1.81600392       0.12901587       3.14235910      -0.45515836       3.14590122
O      -32.00658655     -15.94236447      -3.56175445      -1.67519459       0.02926169      -0.83482947       0.48330449       1.06233046       0.41238276
O      -30.58400131     -17.47318586      21.71949642       0.29872151       0.76092912       0.05342320      -0.35472180       0.64191916      -0.21069969
O      -29.28461364     -33.01740991      22.01160078      -0.80620853      -0.38841634       0.57962288      -0.48039333      -0.75425957      -0.94715297
O      -28.20889487     -33.55071250      23.74903591      -1.95582606       1.91591964       0.69555198      -0.05878976      -0.31137762      -0.48989099
H      -27.09582894     -34.87883276      24.41625714       0.12624012      -0.11836868       0.20762299      -0.35731297       1.22513421       0.35403315
H      -26.59275999     -36.48982826      24.72661290       0.12620221      -0.17450000      -0.13164762      -0.39498982       0.04799789      -0.54488075
H      -29.59481415     -18.56107294      22.90288716       0.22447263      -0.04362421      -0.12717357       0.29645124       1.22182753      -0.04721381
H      -28.14790452     -18.71991542      23.67486078      -0.29557675      -0.22837689      -0.16867168       0.44354497       0.88545043       0.22887972
H      -30.48485912     -33.99951623      20.83654693      -0.07423609       0.31282393      -0.16556378      -0.05567505       1.07758050       0.13337290
H      -31.38824202     -35.35249684      -5.31446334       0.01258449      -0.14241035      -0.25849833      -1.34862715      -0.76765019      -1.06345557
C      -54.01733797     -36.47090117       6.39958132       0.02608401       1.22668009      -1.72621164       3.63448810       1.04022977       2.33644705
C      -53.40340818     -35.44312918       7.35728166       1.62994946       2.58007700       1.09195354      -0.49705700      -0.68713676      -1.00980282
C      -53.14704659     -37.59387747       6.18249280      -1.44309284      -0.73849495      -1.10465372      -0.40567079       1.33899825       1.05877604
N      -55.10459483     -36.23898117       5.74420093       1.45761237      -0.89784911       0.64127740       0.17194350      -1.16551041       0.06541008
C      -52.04312105     -35.48330089       7.87401973      -0.65365505      -0.32629287      -0.42837038      -0.02340962      -0.18680530      -1.31404305
N      -54.06954097     -34.22415471       7.60868587       1.76687612      -1.67155777      -1.72393812      -1.99777828      -0.80183268      -0.17696978
C      -51.43844340     -36.77575687       7.81068628      -0.53031166       0.66402381       0.07838405       1.57306593       1.39850633       1.64528150
N      -51.38886277     -34.37012571       8.20354003       1.41894495      -1.07417456      -1.58597826      -0.90090713       0.50476478      -0.60784113
C      -51.97915358     -37.74228659       7.01044682      -1.40902013       1.63003696       0.03659535       0.23161887      -2.83041120      -1.84017133
N      -50.10746418     -36.99007302       8.45560744       0.32527574       0.48966410      -0.40656882      -2.08002034       1.41949693       0.20317260
N      -51.38856250     -38.91281587       6.76888092       0.67634809       0.66843974      -0.61384352      -1.20626122       0.67375820      -0.14940738
N      -53.28470641     -38.38563023       5.01798482       0.89094213       0.34994082      -1.02159981       2.18740652       0.14180139      -1.05400048
O      -55.23666427     -34.04729809       7.27570071      -0.79400152      -0.80311215       1.31237756      -0.34928710      -0.91093243      -0.97686421
O      -53.53968926     -33.36607061       8.26519809      -2.40528430      -0.14175147       1.33750361       0.91786101       2.01073948       1.16499197
O      -49.74014448     -38.12564878       8.68116363      -0.47442465      -1.31065935       2.39770200       0.44001459       0.06046304      -0.17058706
O      -49.53746046     -35.96996204       8.86545386       0.43652154       0.08953848       0.73357611       0.40307547      -1.22738813      -0.24740754
O      -52.29295378     -38.99945317       4.49355687       0.38979240       0.06333184       1.00661879      -1.08501258       0.28043538       0.86048645
O      -54.28786677     -38.30123565       4.38312265      -0.47055358      -1.55062279      -0.47226919      -2.76107356      -0.21450183      -0.95817616
H      -55.41238812     -35.29935974       5.73871830       0.16928559       0.02224831      -0.24224889      -1.21387871       0.65162594      -0.00695279
H      -55.25925306     -36.91603179       4.99643937      -0.23908883      -0.30458693       0.03935812      -0.50771902       0.73923562      -0.01983211
H      -50.45331508     -34.35758910       8.52422780      -0.05538081       0.32471864      -0.29061522       0.67938619      -0.69979930       0.10432111
H      -51.86630598     -33.47981065       8.01412223       0.18255857       0.07183764      -0.31836006       0.39063459      -0.95971113       0.59057091
H      -51.76979218     -39.32754656       5.88204769      -0.21278926       0.42256207       0.19754999       1.50912222      -0.32414154       1.21081820
H      -50.58561984     -39.13286438       7.28726496      -0.13598382       0.18066021      -0.15702370       1.05769351      -0.74999939       0.38564838
C      -44.64271933     -48.15946409      -4.87744462      -0.78545261       0.75345294      -0.13946293       0.02487909       0.53440347       1.89529981
C      -43.25259209     -48.09800179      -5.02787479      -0.73788122      -0.48240340      -0.15145863       2.71328374       0.12589758      -0.73879978
C      -45.12902036     -47.85877013      -3.56044461       1.16050925      -0.30630165       0.86318067       0.28600568       0.25682173       0.45273049
N      -45.39328511     -48.41993831      -5.88622937       0.49630136      -1.22833379       0.75485958      -2.04281949      -0.22210076      -3.18691855
C      -42.32960269     -26.62301506      -1.82697180       0.94547926      -0.53504452      -1.53220832      -0.46217957      -0.98726096       1.89589146
N      -42.73960750     -48.50141754      -6.36915385      -1.36475334       2.03749182      -0.65527491       1.35495778      -1.46746319      -2.00034812
C      -42.80297841     -26.45179473      -0.46016664      -1.16695019       1.84252706       0.14446021      -4.76714229       0.17349173      -4.44218663
N      -41.01447885     -26.60371473      -1.93832833       0.51853917      -0.73447833      -2.10322359       0.06998087      -0.45106857      -1.31249023
C      -44.23220655     -47.53636092      -2.46098437      -0.21366424       0.47964373       0.45414476      -1.59692613       1.00727780       0.00508375
N      -42.06074370     -26.26874020       0.64703762      -0.76252241      -0.15716144       1.08705227       1.12981894      -1.78269783       1.20502479
N      -44.82059339     -47.03569637      -1.36193535       0.13887282      -1.15412256       0.21131890       2.93429809      -0.79767903      -0.03460071
N      -46.56570148     -47.86730876      -3.36250630      -0.95800408      -0.85974352       2.19969066      -0.21823393      -1.41173656      -0.80758928
O      -41.56391355     -48.38153935      -6.75784687       0.81770654       2.06798310       1.19653844       0.03377289       1.40096704       2.55095372
O      -43.44023489     -49.10243983      -7.20902187       2.02406920       0.48812361       1.21933107      -0.85214492       0.60151844       1.33867109
O      -40.97726233     -26.83912692     -25.03425143      -1.34515776       1.15338387       0.45778981       2.04267999       0.05981007       0.38996399
O      -42.50850531     -25.79798345       1.66813313      -0.46162694      -0.68470513      -0.86653974       0.15370455       0.99899005       0.68638259
O      -47.11246205     -47.30813969      -2.41517681       0.41028516      -2.38568954      -0.90421883       0.06424377      -0.12780590      -0.61360876
O      -47.22462020     -48.54631915      -4.18434933       0.51886236      -2.30758880       1.32519772       0.25477709       1.06683081       1.26544426
H      -46.39357014     -48.49436759      -5.87886686       0.07016498       0.25397779       0.32546380      -0.02318695       0.11591244       1.09000512
H      -45.03098283     -48.53946532      -6.83935280      -0.30815059       0.63502820      -0.23946169       0.49131674      -0.01742631       1.11760503
H      -40.44301919     -26.96622558      -1.16364930      -0.22016279      -0.22576469      -0.31013695      -0.53679699       0.87835672      -0.66240245
H      -40.80629382     -26.59568946      -2.91534305       0.18962470       0.14147838       0.01567727       1.44855626      -0.34373218      -0.35523750
H      -45.76712025     -47.06551798      -1.30826331      -0.22819355      -0.09887343       0.17553864      -3.14711724       0.04688347      -0.05720225
H      -44.34109257     -47.17003670     -26.15706682      -0.21844176      -0.41987754      -0.25588469       0.64882334       0.40630684       0.34095856
C      -31.02968631     -20.42424110      40.79868003       1.12607752       0.25453899      -0.50946822       1.91872298       2.35340430      -1.60418535
C      -30.95728764     -21.67689732      40.16306609      -0.34318294       0.64358863      -0.80996207      -1.02945087       1.28529942       1.73476041
C      -30.33145588     -19.34993053      40.18388507       0.21527810      -0.27991939      -2.20274432       1.08081391       1.17727139      -2.36567256
N      -31.52274136     -20.16261777      41.97511904      -0.65447701       0.06414453      -0.31648677      -0.39396350      -6.35821001       0.88901067
C      -30.59408039     -21.74614019      38.78258041      -1.81434322      -0.86869832       0.97636424       0.66043578       2.07509437       1.36379847
N      -31.33488884     -22.73930518      41.01431254       0.33018341      -0.44557245      -0.19216915       1.72385613      -3.49059750      -2.44697555
C      -30.05022965     -20.61913888      38.17180904      -0.43720919      -0.04892832      -1.42420611      -0.37739779      -0.03163946       0.18026219
N      -30.61686504     -22.81571486      38.09360350      -0.02014657       0.59666228      -0.44968886      -1.97294754      -3.84194181       1.30400402
C      -29.73553548     -19.43099788      38.84701270       1.46092314      -0.26808723       0.17991591      -0.91721310      -2.14954239       1.32806927
N      -30.02774206     -20.65245783      36.74287342       0.79046045      -1.04810728       0.95426476      -2.25230212       0.81006378      -0.19757689
N      -28.93552578     -18.56322231      38.31629111      -0.44021401      -0.61746459      -0.93756698       1.59433201       2.07028752      -2.01876462
N      -30.05051279     -18.12424627      40.82875158       0.35755155      -0.01682846       0.55598252      -2.73923897      -0.45409587       3.17835076
O      -31.21692132     -23.85008683      40.45638095      -0.62390678       0.29898190      -0.29745480      -0.80577976       0.27758108       0.40321647
O      -31.56123045     -22.69198596      42.20825596       0.00618760       0.17417278      -0.33299807      -0.36148646       0.79837410       0.53186212
O      -29.13982297     -20.10101913      36.16980331      -1.54692964      -0.24951088      -0.02136846       2.32862707       0.93140919      -1.14304046
O      -31.02699790     -21.03309300      36.12831907      -1.75728044      -0.84847916      -0.22063508       0.39130133      -0.82578209       0.33343739
O      -29.22431070     -17.36902766      40.46638998      -0.38286414       1.01789925       1.36247618       3.10175232       1.94538860      -2.25302080
O      -30.66587715     -17.76990923      41.85890272       0.11934831       0.92054261      -1.62376748      -1.06744345      -0.88179592       0.19344382
H      -31.51042874     -19.29041859      42.30667424      -0.08917927      -0.09347850      -0.54502955       0.23791511       3.88658227       1.50590216
H      -31.40153018     -21.01302919      42.57346785       0.00142893       0.09820232      -0.44855159      -1.20418664       1.38807041      -0.13806346
H      -30.49964244     -22.87827000      37.14368435       0.13002245      -0.10026155      -0.12899382       0.39334982       0.18380424      -2.23806366
H      -31.23364777     -23.51153217      38.47739342       0.18069452       0.11294937       0.22368520       0.45320453      -0.70189498       0.03927076
H      -28.96251003     -17.62723267      38.66064744      -0.15685435       0.26037948      -0.14019988       0.24506689       0.29130279       0.45458693
H      -28.39460992     -18.65090448      37.44041000      -0.08261685       0.09640422       0.03310177      -1.26349309      -0.68896298       0.97474917
C      -11.44148671     -17.16953959       5.59959030       0.23929651       0.41969146       0.38837413      -2.77118168       0.08695696       0.44850914
C      -11.95163423     -17.59675973       6.88233865      -0.81688996       0.07055415       0.60072745       0.52502504       1.43024555       0.80504136
C      -11.90132367     -15.91820334       5.06530865      -1.34149917       1.46018452       0.06214576      -2.08946338      -0.56232257       1.72973695
N      -10.78508677     -18.06002752       4.89046262       0.53665736      -0.50243669      -1.49707596       1.45251713      -1.47918627       1.37160142
C      -12.75216292       4.40965640       9.80759708       1.28310103       0.22067814       0.15953553       0.08491695       0.17772681      -0.19423977
N      -11.29591519     -18.63045014       7.57404254      -0.09162373       0.24182144       0.09283720      -0.17244318      -1.77081919       0.04574222
C      -13.36632116       5.49987440       9.13193591       0.55988384      -0.37747760       0.48485586       0.08947059       1.28571509      -0.91528021
N      -13.04332054       4.17446406      11.10373986      -0.11570731       0.48191312       0.42244904      -1.46342041       1.17294747      -0.33049753
C      -13.01644257     -15.19681812       5.70239819      -0.38148212      -1.19484649       0.33637490       3.22401800      -1.34280296       0.83634669
N      -13.89581688       6.53828547       9.92906425      -1.36661281       0.73647427      -0.35567415      -0.46039492       0.28702119       2.52000125
N      -13.34190502     -14.04259242       5.18285012       0.13627587      -0.24647298       0.90691413       0.94181246      -1.51401003      -2.42012911
N      -11.42211483     -15.49254254       3.83743088       1.03357694      -0.96804693       0.88770979      -0.18713583       3.15227788       1.01805841
O      -10.97998193     -19.63313254       6.92343353       0.27741355      -0.22507978      -0.27956480       0.42559211      -0.07951151       0.24541891
O      -11.12526208     -18.59732479       8.79447515      -0.25387943      -1.43336142      -0.21293246      -0.00262571       0.34962064      -0.60884968
O      -14.61284221       7.38950208     -16.16866211      -0.67833432      -0.34358459       1.04319869      -1.30795729       1.19963760      -2.25841756
O      -13.65439190       6.59835738      11.13793295       1.52154944      -0.82175894      -0.11980745       0.47208783      -0.40909293       0.59208059
O      -11.52689698     -14.27872280       3.49138406      -0.61156147      -1.17353459      -0.20187139      -0.35594465      -1.16305603      -0.10037618
O      -10.79207441     -16.26235234       3.20747895       1.04862752      -0.72856425      -0.50985226       1.95835096      -1.77250266      -2.93776246
H      -10.13727736     -17.67639073       4.27406519       0.49377784       0.37703554       0.18318446       0.79319056       0.28252528      -1.63563563
H      -10.44821557     -18.86415505       5.43986957       0.14148725      -0.49122662       0.14543216      -0.37489979       0.27373205      -0.62080249
H      -13.67990528       4.90263078      11.47764168      -0.28404948      -0.06636996       0.23872537       1.02813231      -0.94094043      -0.21058033
H      -12.38226499       3.84003979      11.77687362      -0.16435929      -0.09857289       0.41864276       0.33768296      -0.41631780      -0.58393930
H      -12.94841332     -13.85116990       4.22141015      -0.06738718      -0.04243316       0.08978234      -0.29960591       0.10824840       1.67977168
H      -13.94893248     -13.50613552     -19.97794768      -0.00010242      -0.18840708       0.11484902      -2.06552429       1.89885013       1.19835851
C        7.56200578       6.97014870     -15.78463674      -0.30512302      -1.54403447      -0.72473528       1.06562410      -2.12549426       0.98424267
C        6.83567286       6.77403190     -14.56337088       1.01443863       0.08257475      -0.53814039      -0.62235399       1.33102611      -0.64602705
C        8.87400874       6.33930702     -15.90790983      -0.09610771      -0.90640394       0.57524441      -1.53580091       1.22149904      -0.62373763
N        7.05659472       7.58524369     -16.82690127      -0.72098342       0.66485727       0.62300142       0.65042999       1.94729756      -2.04138240
C        7.43457830       6.25327894     -13.36810060       0.07659251      -0.91713035       0.76456457       1.28441618      -0.19876456      -1.72287546
N        5.45138187       7.37084524     -14.48215265       0.16293795       0.56044040       0.26955567      -0.59118423      -2.80009134       1.41509436
C        8.76140204       5.67589987     -13.54578192      -2.27815450       0.73516088      -0.68921679      -0.16616246      -0.25540050       0.52727150
N        6.85697353       6.43995564     -12.19417475       1.26148609       1.14364476      -1.28005267       0.92674156      -0.67068738       0.86487146
C        9.50697158       5.82001341     -14.78723056      -0.25004007      -0.53377851       0.36737238       0.21171237       0.12267522       1.47988880
N        9.46049614       5.01600384     -12.34860236      -0.23185656       0.28083575       0.03843450      -5.08548214       1.73193244      -0.96277893
N       10.79677565       5.50029636     -14.84250256      -0.01424906      -0.69672548      -0.70431386       2.57751216       0.63791230      -0.37052400
N        9.61811499       6.39970337     -17.17534506       0.54305368      -0.24165246      -0.24429546       0.00273579       0.18490480       0.50318351
O        4.63635795       6.76715054     -13.74583247       0.08331525      -0.67369588      -0.79578078       1.43077545       0.31211429       0.12892636
O        5.03018068       8.27574488     -15.14214037      -0.13905888      -1.37809219      -0.35257869       0.85513687       1.47013081      -1.41198249
O        8.68725597       4.54553164     -11.49449328       0.23993307      -0.28417457       0.89935034       1.50504896       0.17119779      -0.74406725
O       10.63515579       5.12583709     -12.25039861       1.01238822      -2.07078898      -0.77175059       2.55391410      -0.60527403       0.73164440
O       10.84531057       6.55831975     -17.10066790       0.39441017      -0.33487978      -1.05216723      -0.56361153       0.11244631      -0.78462674
O        9.02920754       6.29504692     -18.24010210      -0.46185851       0.59669971       0.16660168       0.20160376       0.18923801       0.58748092
H        7.73310387       8.03569418     -17.49536739      -0.08421110       0.41876757      -0.05095185      -1.37196929      -1.17915539       0.91182378
H        6.16990686       8.04643932     -16.74052256       0.00533669      -0.00762754       0.46643246      -0.08228431       0.21626598       0.05068507
H        7.44965355       6.21592371     -11.40208597      -0.15698489      -0.02484603       0.11383182      -0.81346543      -0.04876305      -0.00773190
H        5.93166272       6.80943915     -12.10081238      -0.20648767       0.34870394      -0.00529219      -0.18727020       0.12107988       0.03927356
H       11.39311104       5.96274464     -15.65013565       0.31808261      -0.14270241       0.02255495      -1.98788400      -1.54814334       2.26990389
H       11.21221259       5.31915563     -13.91493024       0.06034139      -0.06545618      -0.07771596      -0.16226703       0.05321083      -1.17171260
C      -27.59169403      38.01309552      36.02049715       1.31312573       0.07249447       0.80171129       1.30615310       0.70797336      -0.71598351
C      -27.69902193      36.92598283      36.94664266       0.63249821      -0.05893433       1.26728837      -2.43773280       1.99075403       2.13265295
C      -26.46024660      38.03784177      35.12966280      -0.00395280      -0.05304556       1.10189283      -0.87078893      -2.05880204       1.19575629
N      -28.37147759      39.06954149      36.13452416       0.08145549       0.84293953       1.21960787      -4.84930967       0.69354280       1.67061281
C      -26.80080255      35.91656599      37.20452140      -0.04567179      -0.98122979      -0.47067998       1.62681025      -2.02620101      -0.83246444
N      -28.68200564      37.25626673      38.06366125       0.64876631      -2.23391357      -0.08640543      -0.30028282      -1.60621882       1.21211273
C      -25.76249956      35.82789221      36.20346360      -0.90592196      -0.35145529       0.89730727      -2.54072931       2.12765203       0.14520630
N      -26.90620745      34.93663797      38.14892487       1.57941836      -0.18092022      -0.93437968      -2.68492982       2.39625434       1.26795202
C      -25.56053608      36.91691582      35.31594938      -2.31955273       0.45376060       0.64575299       3.99234992       1.01050383      -1.22038155
N      -24.76177847      34.93069598      36.32967356      -1.15923538      -1.13643959      -0.31718621       4.26843389      -3.80031926       2.74633538
N      -24.22479784      36.99158486      34.83485818       0.16879678      -0.48089175       0.26785215      -3.41719128      -2.56652390       3.11549721
N      -26.33595749      39.13732017      34.22852685       0.58518065      -0.99811354      -1.35215123       0.62746167       0.79178132       0.07377320
O      -29.80722527      37.73240783      37.79012881       0.74539788      -0.11027804      -0.00945803       1.42973941      -0.76642786       0.60777688
O      -28.36495670      36.95510849      39.23632232      -0.34799089       1.04578386       0.99860290      -0.71708834       0.94473930      -2.43800901
O      -23.95693496      34.61881066       9.79548167       0.19440281      -0.64716507       0.31708723      -0.57751849       0.23765399      -2.25010065
O      -24.49021371      34.37422020      37.41662011      -0.88714529      -0.59753851       0.05000998      -1.84210723       0.80185803       0.63219988
O      -27.15767667      40.06896780      34.29740365      -0.77188184      -0.41153060      -0.19292565       0.96629551      -0.69636636      -0.68440025
O      -25.38649705      39.19391436      33.45103576       1.42419561      -0.35974232       0.52583062      -0.37584848      -0.65348366       0.46265177
H      -28.32600404      39.94008607      35.55746947       0.15712167      -0.18918508       0.11570986       0.49937464      -1.89787613       0.42919633
H      -29.33314649      38.89065477      36.68578838       0.14964878      -0.11108336      -0.07076090       3.39890818       0.73880415      -1.91632238
H      -26.09766407      34.53617518      38.53786744      -0.06132661       0.29293426      -0.29146866       1.39765272      -0.61200295      -0.50064134
H      -27.52154893      35.22869083      38.94213910       0.35887990      -0.02233054      -0.51567619       0.51191196      -0.53120581      -1.27627112
H      -24.22946277      37.61477562      34.14801865      -0.11277955      -0.26004634       0.00715295       0.92834060       3.10462634      -3.70042203
H      -23.71355295      36.08804252       9.15132966      -0.14745202       0.09055537       0.15326001      -0.41131856       1.28411134      -0.48280920
C      -66.08043993     -36.76174749      35.84730607      -1.04391799      -1.34840668      -0.08015025      -0.45589417       1.14111280      -2.24134453
C      -66.32582344     -36.66367450      37.18680985       0.07254475       0.48080522       1.37841762       0.06589288       0.38272355       2.12889238
C      -66.18911821     -35.63535366      34.96735679       0.55796630      -0.06637419      -0.13065996      -0.44391177       2.39831184       0.46384435
N      -65.81936970     -37.87420816      35.24081167      -0.49851072      -0.34282467      -1.39379264       0.77273426      -2.31357447      -0.25074735
C      -66.52842447     -35.34690515      37.87418114      -0.30915421       0.28519064      -0.18190889      -0.02169375      -1.99261606       0.53387481
N      -66.39060958     -37.93353460      37.88120288       0.76122744      -0.93030308       0.74699048      -3.19016370      -0.73475272       1.46697924
C      -66.70566841     -34.28361631      37.02441551      -1.27147403       1.51868880      -0.79058608      -1.49017714       2.22526830      -4.00385751
N      -66.58384350     -35.23330188      39.19243224       2.06789356       2.01962598       1.36871927       0.01155190      -0.32531950       2.23399829
C      -66.75325676     -34.42098552      35.51636384      -0.57579298       0.38641411       0.00884490       1.29551910       1.34569825       1.52054070
N      -67.06874776     -32.94040746      37.50298223      -0.23541502      -0.10516973       0.39655486       0.85439793      -0.03847717       1.05105611
N      -67.15955287     -33.36592760      34.77920195       0.54919822       0.11798083       0.17510932       0.27794917      -1.16307959      -0.91041432
N      -65.73187269     -35.66940285      33.59374193      -1.28432830       0.39324693       0.71790617      -0.35405617       3.11950164       0.00522992
O      -66.37780184     -37.89401346      39.11028283      -1.72546840       1.38414837      -1.02542027       1.10246548       0.39639905       0.15338496
O      -66.80427987     -38.99800452      37.34855961       0.70966405       0.70478828       1.41803537       1.53229993       1.61398779      -0.35738781
O      -67.09483248     -31.94378855      36.78860252       0.20524742      -1.56961625      -0.08402137      -0.13303957      -0.72821112       0.12694335
O      -67.23333846     -32.82826022      38.71957603       0.12424236      -0.61400906       0.77066365      -0.22948196       0.08004065       0.09550358
O      -65.51069490     -34.60437324      32.97231728       1.26251061      -0.99328872       0.38873153      -0.71271554      -0.15279985       1.50408340
O      -65.54086764     -36.69676124      33.02398482       1.75111924       1.66543051      -0.24282625       0.38960178      -2.78979543      -0.87858264
H      -65.57440212     -37.85950970      34.28510152       0.00845740       0.01999088      -0.09543420       0.05927063       0.20286956      -0.97889805
H      -65.97713635     -38.76637232      35.63904201       0.34180329       0.13854149       0.40863617      -0.09889613      -0.40305028       0.86304888
H      -66.82596155     -34.38801924      39.76043960      -0.07523675      -0.45023933       0.06206311       0.23015568      -0.85895509      -1.87723181