1296
Lattice="-37.80856705632799 15.520045200076414 53.34155732270057 0.0 17.48668741143637 1.7456721747476325 0.0 0.0 -28.945140820561683" Properties=species:S:1:pos:R:3:momenta:R:3:forces:R:3 energy=-1487788.8393554867 free_energy=-1487788.8393554867 stress="0.005788866592065667 -0.0005506556468742667 0.00043832553928552047 -0.0005506556468742667 0.00670260117745288 0.00015484074493553253 0.00043832553928552047 0.00015484074493553253 0.004059792137118481" pbc="T T T"
C      -25.15058942      22.88076123      35.79563962      -0.48992664       0.24805444       0.80007275      -1.25843571       3.63175656      -0.60887571
C      -25.69257674      23.70040434      36.85628442       0.48823791      -0.22762740      -0.32079708      -1.62190299      -0.27491526      -0.47281229
C      -25.22840864      23.47875863      34.41536866       0.11892974       0.26949212       0.34581917      -0.41885391      -0.67012263       1.11783161
N      -24.53072110      21.79045200      36.07993480       0.30883300      -0.17094197      -0.54607051       1.23765994      -1.65798330       2.33033226
C      -26.69902560      42.24338221      38.30671800       0.28875648       0.53146894       0.16488866       1.49787012      -0.24257062       0.54477057
N      -25.48726947      23.25079426      38.27738521       0.38838136       0.31799796      -1.37654681      -0.01473879       2.87489409      -1.68151404
C      -27.04496621      42.56633672      36.92039347      -0.33397730       0.41063008       0.62207621       1.86987020      -1.77571395       1.43726289
N      -27.18943115      42.96052226      39.29747786      -0.58471503       0.34097563      -0.67184134      -1.00748178      -0.44912954       1.09066416
C      -26.19130698      24.53518803      34.04652772       0.28361306      -0.01557392      -0.41027653      -0.72506429       0.01762684       3.55742572
N      -28.08842660      43.47101223      36.70667694       1.76651530      -0.29851110       0.37675704       0.68436650       0.59261368      -1.59032313
N      -26.27964927      25.01232419      32.85490276      -0.41899717       0.38941959      -0.66546875       0.95098935      -0.98655586      -1.24064854
N      -24.44218961      22.85194158      33.42407325      -0.36365066      -1.11743810       0.63837826       0.42505252      -1.76379511      -1.61688004
O      -25.39181099      24.13071935      39.12138134       0.66278816       0.21415130      -0.42149408      -0.39095557       0.51839868       0.40808941
O      -25.34459979      22.10437850      38.55405533      -0.35427774      -0.62877329       0.72703774       0.25897959      -2.36169815       0.10323177
O      -28.31041706      43.63460056       6.54946804       0.59509661       0.19336464       1.08106762      -1.17081346       0.74150918       0.18293872
O      -28.69962026      44.09835033      37.58088186      -1.65482983      -1.33241597      -1.29347484       0.34601772      -0.68982350      -0.62343110
O      -23.72086238      21.84654757      33.66540787      -0.78785781       0.43855525       0.75581428      -1.03551807       2.05590175      -0.00753249
O      -24.52717700      23.24116875      32.22771342       0.26109975       0.06786974       1.54709185       0.22495580       0.02243238       1.21633957
H      -23.86654553      21.39974728      35.47772695      -0.05857610       0.01026755      -0.03565019       0.50855162      -0.50461093      -1.59652453
H      -24.36067344      21.51038035      37.06150437       0.08033154      -0.26143907      -0.38187826      -0.83151727       0.48039755      -0.84415672
H      -27.88926102      43.68847100      39.10025655       0.03270684      -0.49095750       0.34788534       0.59061457      -0.60123118      -0.28064118
H      -27.07130791      42.73084643      40.30309496      -0.23198509       0.05051150      -0.17738233       0.49248276       0.13746231      -1.66815314
H      -25.64305312      24.46389059      32.23313455       0.07363071      -0.40580592      -0.17848711      -0.70834543       0.98109625      -0.14793066
H      -26.95962863      25.73031589       3.67791572       0.15657260      -0.23069323       0.25431311       0.12380863      -0.41488503       0.11577576
C      -38.78204095      25.39288489      22.19264551       1.38980921       0.07018288      -1.32154392      -1.48699953      -1.28584640       0.61728629
C      -39.63821521      24.84617832      23.23015631      -0.65819143       1.11750561      -0.03623154      -0.30922793       1.76190358      -2.27968943
C      -39.43973732      25.98743517      21.02184283      -0.10792497      -0.17012479      -0.08406983       2.01678768      -2.00776445       2.66107921
N      -37.45601286      25.23092629      22.29991253       0.20039667      -0.50977603       0.51117861      -0.10174623      -0.35819802       2.44906181
C      -41.08522606      24.85548579      23.07383816       0.29099069      -0.10963800       0.94527341       2.14882253      -1.38255747       1.25691638
N      -39.08136477      24.36000494      24.43305238       1.03224638       1.43439183       0.96595578      -2.22175973      -2.01377881       0.22801378
C      -41.68557567      25.48547809      21.96242797      -0.69328317      -0.49144519      -0.20846113       2.26494363       1.72502334      -1.99805926
N      -41.72647458      24.19861947      24.01455475       0.04773798      -0.66210638       1.02650611      -4.73376965       1.04250054      -0.58377204
C      -40.83569562      26.21734838      20.94727467      -0.14276135       0.35497228      -0.43519175      -0.20512682      -1.69498764       2.88730789
N      -43.06760250      25.60269540      21.81877261       0.29895363      -0.61186984       1.20387315       0.36492028      -1.48895062       2.24627761
N      -41.30881721      27.06502428      20.07872673       0.49786048      -0.23874466      -0.39271334      -2.81790108      -0.14037725       1.09869856
N      -38.50285551      26.46227731      20.09175088      -0.49655433      -0.03297922      -0.03948334      -2.66753376       2.68683208      -2.09371171
O      -39.64559414      23.38559117      25.00195254       0.46890472       0.97066651      -0.90018695       0.98251077       0.55499797      -0.19320660
O      -38.13538183      24.88239198      24.92299028       1.95272076       0.34273142      -1.91328720       2.39989579       1.07510480       0.55485459
O      -43.79443033      24.96702495      22.58721801      -0.13797605       0.89488274       0.21639765      -0.32985925      -0.46471279       0.63728458
O      -43.53028909      26.31448326      20.98962703       0.29192541      -1.11639491      -0.37080192      -1.27045553       1.97904046      -2.20921288
O      -37.41482682      26.03356870      19.87814247      -0.01469861       0.35611872      -0.52744828       2.32583271      -1.74568098       0.43810013
O      -38.90992586      27.41244185      19.41038886      -2.16734167      -1.14422329       1.48809016       0.00990678       0.60549431      -0.03871205
H      -36.88625848      25.21605116      21.49548327      -0.40979361       0.21650772      -0.14501271       0.41181001       0.28948715      -0.72586440
H      -37.02969413      24.94262557      23.22156986      -0.19785930       0.43934406      -0.24196060      -1.04581516       0.59570167      -1.72498094
H      -42.80447237      24.25927600      23.83088420       0.22433814      -0.36110194       0.03612154       2.67164548      -0.46184006       0.76873826
H      -41.30272636      23.80724729      24.86354778      -0.67401250       0.19318201      -0.09162358      -0.41927670       0.21137658      -1.30294902
H      -40.63320015      27.47682720      19.52915394      -0.12199258      -0.07015664      -0.23820257       1.32809477       1.24985528      -1.66481212
H      -42.25789773      27.41703377      20.23642336       0.08681489       0.13580721       0.31239972       0.53894769      -0.58679748      -0.61263396
C      -33.74766126       9.88642072       9.24103800      -0.61618844      -2.31810205      -0.06431887      -0.96528200       1.77696674       0.61730082
C      -33.27594446      10.44033713       8.02125013       0.06225062       0.67443326      -0.48210950       1.45335944       0.28980111      -2.32374527
C      -35.02562299      10.28425939       9.75787298      -0.23065492       0.90699422      -0.07466578      -0.75704313       0.44372382      -0.43576740
N      -32.97179569       9.19191812      10.02922785       0.61156537       0.14040364      -0.26274939       0.10538196       0.16302687      -1.30874063
C      -34.00519591      28.91220936       8.97730801      -1.08833325      -1.70219495       0.32874974      -2.10323298       1.47515485      -0.05994597
N      -31.93182418       9.94210987       7.44390336      -2.27107000       1.12128501      -1.14975684      -1.92401884      -1.04899607       3.11192544
C      -35.19039609      29.42958502       9.62507032      -0.46356780       0.18881966      -0.50811418       0.46843576       0.55413650       0.91331597
N      -33.79892970      29.41196424       7.71223839       0.33437541      -0.46199147      -0.06089888       0.50089422      -2.52994082       3.37679759
C      -35.66477271      11.43519675       9.17053262      -0.72855450       0.94463372       0.17469596      -0.20944956      -0.19800431      -2.31951207
N      -35.92048958      30.59726834       8.99062702      -0.13463504       1.28934495       0.34445014      -1.73294759      -3.10384014       0.49588782
N      -36.73500357      12.00660873       9.65354665      -0.46500125      -1.46121465      -0.77882189      -2.37711006       0.78893873       1.04983296
N      -35.64006557       9.58672658      10.87663250       1.06291573       0.03081184       0.65184565      -0.97410131       1.87639677       0.24382484
O      -31.66686918      10.12181856       6.31691654       1.31385330       0.27411206      -1.12138799       0.09939496       1.20729399      -2.39833773
O      -31.19640694       9.25334337       8.18499214       0.15876723       1.33600828       1.18623932      -0.20187395       0.65150409      -0.05505258
O      -37.17663706      30.64593108     -19.77589080       0.85744382      -0.35181361       0.44411647       1.86367280       0.70384719      -0.00253861
O      -35.37247941      31.28337455       8.17520491       1.44337558       1.02389986      -0.79200187       0.14505476       1.06526368      -0.05981922
O      -35.04840714       8.74961095      11.51101832      -1.37108492      -0.11545653      -0.05541310       1.87408175      -1.69399257       0.10003165
O      -36.76501523       9.89916120      11.27747727      -0.04896414      -0.33137520      -0.26422808      -0.33564518       0.70308904      -1.05408434
H      -33.44816246       8.65721871      10.69026224       0.38667567      -0.13057209      -0.28111862      -0.23994717      -1.01051037       1.54391942
H      -32.12793246       9.01161379       9.54935640      -0.23312794      -0.05215094      -0.30511099       1.55507644      -0.97793663       0.07066645
H      -34.19399301      30.27046783       7.42287149      -0.29063776       0.04681026      -0.31417799      -0.28148713       0.62446367      -0.11255435
H      -33.07571094      28.94040959       7.28761606      -0.05258998       0.01345773      -0.13671704       1.91909594      -0.64009985      -1.56526445
H      -37.20915363      11.60157490      10.44801058       0.14341769      -0.34099999      -0.26031309       0.53773743      -0.26747554       0.10468743
H      -37.34095425      12.69083792     -19.80723911      -0.09997028      -0.16328699      -0.40059880       1.65808264      -1.12315802       0.34106108
C      -20.27383407      -2.62724223      31.94049932      -0.03235498      -0.24070981      -0.47130629      -1.39512082      -1.55594385      -1.08363383
C      -19.69455002      -2.20478755      33.16065184       0.02333565       0.18154465       0.71693833       1.44100045       0.16082744       0.16761701
C      -21.65830603      -2.47916228      31.70016217       1.20714310      -1.32900755      -0.31775380      -0.73537315      -0.41511900      -1.18372423
N      -19.63223375      -3.34653008      31.03108464      -0.02363979      -0.60001795      -2.73764588       2.41707176      -0.65290730      -2.55668694
C      -20.32723758      -1.21675927      33.99738723      -0.10590189      -0.66241647       1.32526976       1.42285694      -2.02374877      -0.41453684
N      -18.34690467      -2.76300349      33.49730043       1.71937992       0.80301079       0.40912549      -1.79316616       0.41152187       0.33127537
C      -21.63016954      -0.99306060      33.59222139       0.11956545       0.39121353       0.46740001      -1.12492667       2.08556919      -0.10985363
N      -19.71378878      -0.68132775      35.08192277      -0.22004581      -0.24703733      -0.01309894      -3.18755907       0.34487858      -2.27501836
C      -22.32516332      -1.56106540      32.47236187       0.51761258       0.22827042      -0.32015113       0.47030394       0.15499288       0.95357238
N      -22.22857498       0.28086215      34.06359746      -1.26579144       0.45697899      -0.44986715      -0.93056912       1.94490027       1.47754337
N      -23.52947107      -1.10196183      32.18084122       0.77205192      -0.80273388       0.57764410      -2.09879053      -1.07405130      -0.93445039
N      -22.32819624      -2.94345406      30.38310469       0.98184483       1.07892996       0.04010992       1.03785168       2.63464480       2.28783888
O      -18.03711719      -2.81470491      34.69170890      -0.64174433      -0.42175742       1.25417395       0.13701241       0.11337660      -1.35741037
O      -17.67401500      -3.22427867      32.57953437      -0.00635070      -1.42648885      -0.58297233       0.63761601       0.27154914       1.17905482
O      -21.63163918       1.33951458      33.98313123       1.50053238       0.38051687       1.20041191       1.30310183      -0.93151841      -0.71332685
O      -23.35430030       0.32631100      34.57314357       0.82341488       0.67754356      -1.96862523      -0.14150162      -1.59857821      -0.41736017
O      -23.50672891      -2.71502317      30.21303273       0.41279909       0.40434934       0.24998159      -0.40254677      -0.93046068       0.27540887
O      -21.60700242      -3.30984243      29.49357458      -1.05275890       0.38097021      -1.21723426       0.36738602      -1.15129569      -1.45684956
H      -19.94992306      -3.64345640      30.03462871       0.13044072      -0.13749915      -0.18015456       0.04680041       1.29057958       3.26146372
H      -18.64246740      -3.17202465      31.15343074       0.34485649       0.21336746       0.11300312      -0.07506865      -0.78060039      -0.50713505
H      -20.31641231      -0.27793943      35.74517184       0.15146607      -0.26816320      -0.25250540      -0.32013835       0.78054721       0.74497041
H      -18.83984589      -0.96563073      35.33139262       0.23144790       0.08306574       0.36509841       2.59697050      -1.02547722       0.82102387
H      -24.21989585      -1.73822183      31.73129016      -0.13680632       0.05883412       0.08605606       1.37587385       1.01907501       0.27121028
H      -23.90132527      -0.50040617      32.85243386       0.12111297      -0.36102294      -0.23163130      -0.95516102       0.90494798       1.01295978
C      -19.58342167       2.05975512      11.43863823      -0.35777130      -1.80046291       1.13090662       0.11365224       0.11832411       2.23429040
C      -20.40897314       1.34514543      10.56218610       0.14901583       0.57588290       0.51342936      -1.71280209      -1.38230043       0.50079439
C      -19.67138312       1.84481910      12.84293966       0.99222732      -0.26806256      -0.59981601      -0.97405357      -2.45069392      -0.02191817
N      -18.78663533       3.00380228      11.05167740       1.24513251       0.77802790       0.22075237       0.19321927       0.61042894      -1.83192082
C      -21.12533447      17.62627328      12.78416585      -1.32005137       0.31871208      -0.07618297       0.39264482       0.85540024      -0.48878596
N      -20.42587912       1.80334791       9.21830140      -0.81420270       0.48798529       0.09886164       1.94970770      -1.77811966      -1.16462785
C      -20.82328192      17.20699296      14.10365500       0.78399989       0.20784410      -1.32292487      -0.64881473      -2.39912732       0.82893720
N      -21.94903160      16.91009399      12.00972120       0.14261772      -0.43584743       0.59386049       2.12675393       5.05340431      -2.40708081
C      -20.17819840       0.51745172      13.30369350       0.13291820       0.47211479       0.09519832       0.83150599       4.50798036      -0.11309473
N      -21.28420166      15.79534490      14.58324646      -1.17061112       1.42781473      -0.19616242       0.88678413       0.74250804      -1.12898989
N      -20.03677933       0.32860432      14.58927929       1.49380481      -0.40401017       1.42692870      -0.88345504      -0.72682296       1.58677728
N      -19.15157543       2.81466973      13.73351640       1.42770486      -1.69051723      -0.67918146      -0.02885467      -0.60729160       1.61298711
O      -21.33117328       1.54211702       8.43811192      -1.16653966      -0.04151111       1.37577716      -0.28376654       0.02590652       0.70330028
O      -19.32551716       2.26183533       8.81643689      -1.02104424      -2.43842454       1.25868702      -1.78987575       0.14994887      -0.82847294
O      -22.24146285      15.25800282     -14.87801143      -0.45283665       0.90530603      -0.26360326      -0.70418332       0.72114993      -0.73612320
O      -20.60140108      15.16810220      15.36366802      -0.72166313      -0.30528188      -1.37573640       0.75237642       0.78638060       1.04727404
O      -18.30016274       3.58927682      13.36592091      -1.36361162       0.22818536       0.03383091       1.08613750       1.00667955      -0.58398737
O      -19.51519796       2.88558249      14.92326257      -1.10386100      -0.98607078      -1.26623058      -0.78434785      -1.00412118      -0.35227952
H      -18.03869565       3.32201143      11.61862713      -0.26849345       0.22871194       0.20597972       0.15229225       0.33022209       0.57716621
H      -18.78521309       3.08233334      10.05155184      -0.08591771       0.19533046       0.16017708       0.74962093       0.62220530      -0.30072602
H      -22.22306657      16.05738126      12.30466708       0.19768275       0.03943945       0.08175208      -1.40449836      -3.02465291       0.75515473
H      -22.02311514      17.30058863      11.03851328      -0.05366178      -0.14822705      -0.18284195      -0.31657780      -1.05383147       1.35840006
H      -19.88949638       1.13628042      15.25520318      -0.34129194       0.29918071      -0.32669116       0.01599853      -1.17746844      -1.42853995
H      -20.31460462      -0.57710040     -14.01803314       0.02622319       0.10246250       0.03900226       0.25754198       0.04122299       0.35968828
C       -8.79040356      15.05054628      -3.65508759      -1.66740119       1.79227345       0.89721902      -0.65026425       3.12950595       4.20123874
C       -8.25177415      14.27149510      -4.63583205       1.29422622       1.48879678       0.09398164       1.00219390       1.04384854      -2.53839575
C       -8.19595358      16.47332414      -3.29703737      -0.07270860       0.80863448       1.34866434      -0.88381685      -4.11586183      -2.10944155
N       -9.70773914      14.60997160      -2.75086853      -0.57598253      -0.69445768      -1.10539415       1.84286290       0.72243468      -2.20817403
C       -7.28788225      14.88078317      -5.56334998       0.75757703       0.79534091      -0.25878592       2.46053094      -1.77787259      -0.14241010
N       -8.72078736      12.96170505      -4.92669911      -0.27159210       0.44850310      -0.67257219       1.31372116       0.23210264      -0.69816512
C       -6.69503841      16.09432359      -5.21724270       0.78050588       0.67328711       1.39738391      -0.73239051       1.48886958       0.71190850
N       -6.63822080      14.22224316      -6.56187596      -0.21376949      -0.33418115       0.10855468      -2.85213464      -1.06250162       2.78406110
C       -7.12163303      16.88694573      -4.13659293      -0.18046930      -1.25733209      -0.82908564      -0.00800752       0.95158036       1.79124239
N       -5.99094710      16.82295633      -6.25143391       1.32286410      -1.81865865      -1.03153177       1.97342134       0.49677629       0.92278345
N       -6.47754759      18.01582461      -3.85953732       2.02653342       0.13386224      -2.50268760       3.47446397      -1.99207074      -5.00989854
N       -8.56009020      17.27632436      -2.19087505       0.18061015       1.45614303      -0.04502641      -0.79365526      -2.48473097      -1.11834092
O       -7.95819453      12.30062744      -5.63978256       1.00004756       0.01369396      -0.24103323      -0.91962235      -0.68330649       0.32707792
O       -9.78170360      12.55517110      -4.50530157      -0.01494176      -1.23352718      -0.42969879      -0.49066080      -0.19081142       0.30648126
O       -6.50976229      16.67696951      -7.32403460       0.37759488       1.49390346       1.00969654       0.36708107       0.90142939      -2.07849838
O       -4.93953965      17.52986580      -6.06669783       0.08908610       0.08814899       0.17851581      -2.38808200      -1.89438499      -0.33108606
O       -9.55358779      16.98141251      -1.49412283      -0.03456231      -1.14963349      -1.37433707       1.40397697       0.79939460      -0.45152280
O       -7.79789984      18.20455540      -2.02084415       1.04071217      -0.07102749       1.05425928      -1.49311194       1.64296206       2.90519942
H       -9.62779526      15.13327349      -1.91787145       0.36527422       0.38756955       0.04055250      -1.29015225       0.17779738       1.06137506
H      -10.29934669      13.84964793      -2.97330042       0.11397972       0.15077061      -0.13682735      -0.22712196      -0.56262365       0.29730780
H       -6.08169142      14.74275960      -7.16974816      -0.25473931      -0.15570199      -0.43950944       0.52600123      -0.02963128      -1.08927392
H       -6.99980135      13.27338931      -6.72055144       0.12723445       0.15401133       0.02803851       0.64545910       0.99649411      -0.09400225
H       -6.85171596      18.65124632      -3.26809162       0.56625438      -0.23148723      -0.38413956      -0.70992832       2.05115372       1.94162166
H       -5.65998601      18.21653251      -4.48887795      -0.03285948       0.19808550       0.07452175      -1.25509531       0.24065376       1.28458715
C      -16.52366999      25.82710284      36.54514558       1.05331341       0.27425238      -0.53017329       2.04309716      -0.23731056       1.12716971
C      -17.00985783      26.27269927      35.29255640       0.46338207      -1.77799517      -0.19714097       2.13383360      -1.44354193      -0.90143220
C      -16.92126228      26.57940668      37.71902466       0.34787661       1.54060249       0.55194850       1.90865019       0.42978213       0.67916479
N      -15.57780095      24.86172036      36.61929043       0.52684677      -0.29205228      -0.39646323      -0.42441500       0.35275437       1.37313747
C      -17.86910581      27.37875350      35.13160952      -1.00122154      -0.08805273       0.31892567       0.22478130       0.07717520      -2.01554593
N      -16.31825873      25.65931943      34.09289822       0.78800355      -1.38363748      -1.21295150       0.58805806      -0.98686891       0.71937207
C      -18.38123130      27.94295863      36.34623381       0.28438213      -0.48920471      -1.53094396       0.70409529       0.36801994       0.65012290
N      -18.09832109      27.86531542      33.86769196       0.14171049      -1.22288258      -0.37313613      -0.53962283      -0.06291391       2.19665710
C      -17.68008740      27.75695251      37.63119303      -0.63405042       1.30703278      -0.50850811      -3.25622877       0.07357762      -0.84151295
N      -19.58464824      28.67175385      36.28692235      -0.07703339       0.18721335       0.63382515      -0.11175870       1.11785001       0.84122220
N      -17.99026109      28.49817978      38.69120888      -0.16748651       0.79749226       0.55096034      -0.55306013       0.39978105       0.80130292
N      -16.20548405      26.41783896      38.95693371      -1.16027508      -0.60793029      -0.04207112       0.67943459      -3.55927182       2.27226770
O      -16.85909709      25.87230809      33.03726524      -0.46619185       0.66152863       0.64679279       0.05642209      -0.05568958      -1.14539271
O      -15.27467689      24.89670282      34.11140230       0.62450545       0.32075199      -1.84683695      -2.53649021       2.06473957       0.48563277
O      -20.12371041      28.75374194       6.24196941      -0.68728062       0.48161484      -0.38956863      -0.46690108       0.42527213       1.47317324
O      -20.03176986      29.21681613      37.36205631      -0.59209964      -1.26186169       0.94729404       0.28213072      -0.90897906      -2.67688814
O      -15.38023844      25.46777404      39.09479882      -0.96564369      -0.39711191      -1.21584538      -0.29551241       0.70831878      -1.66195319
O      -16.48964747      26.95524078      40.03225322      -0.75753098       1.16171402      -0.54888438      -0.67686187       1.38419459      -0.94664252
H      -15.09148597      24.70051365      37.57736688       0.16491775       0.48497707       0.01563048      -1.45147824       0.50918399      -2.28827125
H      -15.28104147      24.49717502      35.69140945       0.40082301       0.08389520       0.05889767       0.15661218       0.14644386       0.96107540
H      -18.61380711      28.69312936      33.73239422      -0.05763699      -0.20476208      -0.02229096      -0.81011234       0.59609975       0.58078553
H      -17.65705319      27.52182201      33.05038432       0.14564878       0.35867348      -0.04760694       0.60930197      -0.74263570      -0.08606708
H      -17.75326838      28.12727251      39.61291256       0.33099159      -0.08538895      -0.29723905       0.46139314       0.21421222      -0.57928333
H      -18.75843037      29.18825601       9.78839637      -0.22637115      -0.20292320       0.41762342       0.83628380      -0.81750867      -1.00194851
C      -40.99597999      36.63850138      41.94140847       1.18077099       0.57161840       0.39095083       3.79648616       2.75443011       0.90081300
C      -41.83345174      36.50890456      40.91124889       0.41823284      -0.77595211      -0.34578668       0.33606883       2.94780482      -1.76362739
C      -41.24007570      35.88271457      43.08472353      -0.64376026       0.33414309      -0.91726686      -0.02661623       0.31957342       2.03874941
N      -39.98766965      37.61513607      41.88149878       0.93135466      -0.58295170       0.71859910      -1.07947436      -1.40530933      -0.37254396
C      -42.91483441      35.65106769      40.93350668      -0.15573860      -0.41578814       0.22131222       0.26034291       1.88952730      -3.30761821
N      -41.71619555      37.76686868      39.96824751       0.14428258      -0.90411058      -1.36169807      -3.14538226      -0.84657081      -0.67641444
C      -43.13533229      34.87792722      42.00775902       0.13229071       1.45916525      -0.32343467      -0.52427498      -0.49463062       2.98449285
N      -43.65524222      35.69658353      39.81501072       1.04965628      -0.60196271      -0.14491336      -1.28688315      -2.21838022       2.47660861
C      -42.40077687      35.18538642      43.27662665       0.75413289       1.01359760       0.95396499      -2.30944543      -3.14348246      -0.03787649
N      -44.33160525      34.09034752      41.97120772       1.46983151      -1.71507943       1.27207275      -0.55658247      -2.42966128       0.34225319
N      -42.73334596      34.63812691      44.48961400       1.22105132       0.06318518       0.26212560      -0.20656894       0.07525385      -0.26855306
N      -40.41852680      36.11658184      44.23850234      -0.49076177      -0.09590261      -0.11803127       2.29102432       1.54173390       0.96818158
O      -40.67089829      37.98381593      39.43209863      -0.09745209      -0.05286904      -0.09392672       1.41818094      -0.08251484      -0.61853538
O      -42.71015053      38.48691203      39.73123259      -1.91017487       0.07901642      -1.09118703       0.87909385      -1.52025198       1.02856616
O      -44.84154636      33.58989860      40.93759818       0.53605389      -0.41529468      -0.16934066       1.38239492       1.73009853       0.75204555
O      -44.78709046      33.78530749      43.06443327       1.39893563       1.41757939       0.14264785      -0.35271634       0.13100583       0.24269626
O      -39.24394062      36.31825423      43.99971362      -0.01009616       0.43370816      -0.03661303       1.33524883      -0.55180047      -1.27619684
O      -40.74446534      36.25951376      45.40664050       0.12271652       0.94617999      -1.22363341      -2.42431079      -0.77925106       0.14239271
H      -39.49626315      37.96496659      42.66329039       0.38920733       0.40500175       0.31276982       0.13254018      -0.39597328       0.85239538
H      -39.66774160      37.94961711      40.98578924       0.43215255      -0.24404422      -0.29264794      -0.29471870      -0.18223967       0.32538255
H      -44.18883602      34.84006210      39.71942596      -0.30742871      -0.20829714      -0.14709879      -0.30360569       0.47684834      -1.01595761