1296
Lattice="-47.71792830852117 -7.385444213749898 19.51636362136393 0.0 14.8451817800785 12.481518729524389 0.0 0.0 -27.851148122568887" Properties=species:S:1:pos:R:3:momenta:R:3:forces:R:3 energy=-1487781.615584473 free_energy=-1487781.615584473 stress="0.007918419681209847 -6.107420881198755e-05 -0.000355014900249705 -6.107420881198755e-05 0.0025683822535757642 -6.446491001074484e-05 -0.000355014900249705 -6.446491001074484e-05 0.004194153154793159" pbc="T T T"
C      -27.81490700       0.89357609       4.18427150      -0.45332173       0.20789532      -1.05019378      -0.75934098      -2.67100495       0.25186086
C      -27.30319943      -0.48143080       4.10794686      -0.31674343      -0.73561903       1.66559495       1.68419885       2.58894942       0.93742253
C      -29.17109313       1.01439228       3.88296934      -0.37314894       0.12534494       0.15901070      -0.48997203       2.61088160      -0.21058641
N      -27.23756901       1.97877501       4.66912157       0.08322420      -1.11396579      -0.39688610      -0.39520622       2.93005171      -0.83827446
C      -28.03869329      13.28903899      16.11154748       0.11598525      -0.49966226      -0.34388744      -0.35194947      -0.62452194      -0.60520163
N      -25.90304775      -0.65069471       4.45158902      -0.23728049      -0.34394238      -1.17385851       1.31659093       1.31643556       1.98279839
C      -29.34310935      13.63728285      15.67691955      -0.28645511      -0.21357775       0.03307769       0.39976302      -1.18116757      -1.66486526
N      -27.48533867      12.03497066      15.89847547       0.51991152      -0.12596447       0.28142274      -1.49902909       2.23863284      -1.00040763
C      -29.93867741       0.05754179       3.26330332       0.20815013      -0.59890626      -0.47980991      -0.94240059      -2.26248419      -1.00220536
N      -29.89638887      12.59831333      14.72479268       0.15435969       0.86409650       0.31270980       1.15962674      -0.35761744      -1.26708508
N      -31.18681379       0.23253671       2.74941180      -0.30426138       0.12211913      -1.50661820       2.35195393       1.96113531       2.11499924
N      -29.69124113       2.39322959       3.83679881       0.60340197      -1.07888578      -0.55177377      -4.86117807       0.74205149      -0.83353736
O      -25.21531823       0.39547158       4.74784192       0.06606934       0.46321026       0.88171485      -1.28968656      -1.92237275      -1.08801301
O      -25.41420838      -1.75294928       4.62812315       1.91014969       1.05675078      -0.95578368      -0.50463564       0.52808606      -0.56584000
O      -30.11435655      11.52948852     -12.63698208       1.64853073      -1.74334775      -0.39260230      -1.14010261      -1.46131854       1.76478973
O      -29.88065704      12.68110663      13.49334877       0.52778979       0.77012180       1.18362449      -0.27684870       2.08621017       0.83262370
O      -29.06318211       3.34414039       3.44827744       0.08680495       0.35046445      -0.40421593       2.06373542       0.37061912       0.11100826
O      -30.94616830       2.61285753       3.99095013      -0.92657530      -1.29026907       1.17951427       2.06620007      -1.80992204       0.64354853
H      -27.59606608       2.92238088       4.29478010       0.23336430       0.17428645       0.31361205       0.58239579      -2.13554393       0.90266678
H      -26.27320429       1.96148526       4.75926247      -0.02022692       0.16817521       0.15568704       1.91676528      -0.42688033       0.39722306
H      -28.14229137      11.32908187      15.82006580      -0.06517131      -0.19048102       0.04513923      -1.77514014      -1.35558030      -0.65407269
H      -26.84714128      11.68577154      16.52192809       0.18165973       0.18104273       0.07440782       2.38984664       0.12608586       1.65542253
H      -31.70409449       0.93182895       3.20074361      -0.29113596      -0.39802814       0.13818552      -0.78441666       1.07267309       0.22083122
H      -31.64663453      -0.33011838     -25.71031397      -0.04509875       0.09639876       0.19422236      -0.96675549      -2.28534704      -1.86264819
C      -47.44950464      -1.24123649      -2.51567518      -0.27595496      -0.12992066      -0.93238707       1.39784359      -1.72752124      -0.79998046
C      -46.39627156      -2.00894213      -1.76541353      -0.80837255       0.06411058      -0.81033997      -3.05625492       2.88694404      -0.20673291
C      -48.82052645      -1.74596088      -2.25309060      -0.58924134      -0.07735094      -0.07931637       2.22095430       2.93969888      -2.09735944
N      -47.04473870      -0.40405150      -3.58247070       0.82721196      -0.56422756       1.60838479       0.46015325      -1.63802501       3.63918963
C      -46.78188933      -2.84917037      -0.61703842      -0.42670550       0.50606173       0.28498372       0.70268234       0.18539178      -2.26734731
N      -45.02030865      -1.55455912      -1.98561426       0.48417825      -2.18448265       0.01576760      -1.96966297      -1.33071553       1.62016847
C      -48.15335824      -3.25476316      -0.41391399       0.31390834       0.11071470       0.52621832       0.31465066       1.89067327      -0.11925389
N      -45.83079445      -3.37828458       0.11693062       1.25210184      -0.70936534       0.01239307      -2.37595996      -0.92412563       1.99328363
C      -49.15844593      -2.70697724      -1.30769156      -1.29843653       0.10674767      -0.27044505      -0.22115188      -2.07921413       0.58652433
N      -48.52330356      -3.90857994       0.78827210      -0.23696459       1.26771769       0.38649869      -1.57781608      -1.73132451       1.70088310
N      -50.33273690      -3.31748014      -1.31173360      -0.47187243      -0.58131265       0.00768398      -0.42558853      -0.46042699       0.64739704
N      -49.81086618      -1.31591245      -3.21514192      -0.23086407      -0.88229914      -1.07688734      -0.50247929      -1.26532849       0.20719219
O      -44.72146435      -0.42588960      -2.25005647       0.06231302       1.02802228      -0.41379823      -0.53651014       2.37742229      -0.84054222
O      -44.17672447      -2.37439712      -1.79643148      -0.68122391       0.82187141      -0.29989894       2.08891944      -2.60949481       0.42904514
O      -49.73993645      -4.07421996       1.13980628       0.10544868      -1.58330930      -0.09136540       2.41612040       0.73248199      -1.32212476
O      -47.65194643      -4.42136980       1.53210108      -0.64264631      -1.72019995      -0.55415295      -0.63610126       0.86680898      -0.84895588
O      -49.59126278      -0.47462934      -4.05316548      -1.00281654      -0.03088896      -2.41300701       0.85527893       1.05031225      -0.32410526
O      -50.88406929      -1.89828840      -3.21838037       0.31999578       0.37855283       0.69547118      -0.84333225       0.10914922      -0.00065873
H      -46.09000902      -0.01241867      -3.52697010       0.09474818      -0.14441539      -0.09487216      -1.22843527      -0.62432599      -0.19843673
H      -47.62631202      -0.23063532      -4.36205042       0.17944956       0.13797620      -0.24655896      -0.71275638       0.18731115      -0.14039947
H      -46.16152066      -4.02379974       0.83686667      -0.48479623       0.24607934      -0.20486237       0.16695175       0.20211639      -0.10726291
H      -44.90747500      -3.38524876      -0.08339291       0.23530494       0.16316901       0.20590879       3.07482191       0.53532871      -1.15165721
H      -51.12078463      -3.02065970      -1.84656390      -0.52132145      -0.43554014       0.00007569       0.13942222       0.45232408      -0.45224489
H      -50.48990818      -4.09908071      -0.70831051      -0.01720791      -0.49964458      -0.23550914       0.17245827       0.15158801       0.51734797
C      -48.06686219      -5.94363625     -34.37767948       0.20800506      -0.21332626       0.20950310      -0.56280946      -1.04841469      -0.57865879
C      -47.08021156      -5.23748126     -33.59977574       1.51896001       1.19903714       1.44784750      -0.78165196      -1.11159720      -1.49054787
C      -47.61113836      -6.97982110     -35.16714019       0.20246971      -1.46947350      -0.08884761       0.53906787      -3.02227889      -1.59190224
N      -49.38726467      -5.81594293     -34.29151451      -1.94288789      -0.00810597      -0.14210790      -1.64372789       2.65109768       1.01258352
C      -45.73442344       9.28234312     -21.19859191       1.26819393       0.58588508      -0.72374028       3.76274833      -0.96410707       2.13070166
N      -47.51606974      -4.32033625     -32.69546689      -0.42642299      -1.67531172       0.27212230      -2.32228836       2.63946463       1.56229842
C      -45.35558921       8.06337547     -21.87751602      -0.44163082       0.43476190      -0.06522938      -2.24794408       1.85776339       0.29909349
N      -44.78098888       9.95672409     -20.40454032       0.38116747       0.03215022       0.06964262      -4.44206413      -0.17829593      -0.25090188
C      -46.29629560      -7.52966567     -35.08293520       0.40644951      -0.78928199       0.31269697      -0.14593567       1.68632326      -0.19966738
N      -44.00791330       7.70348449     -21.97166233      -1.59745487       0.41380695      -0.85871028       0.80446983      -0.04011236       1.03893710
N      -45.83071499      -8.52867131     -35.82811798       1.17721272       0.86433536      -0.21960340       1.29261070      -2.35894624       0.63693769
N      -48.62187799      -7.86957066     -35.97119372       0.98035027       0.14872633      -1.53205867       0.55761307       1.58477989       0.94989418
O      -46.83113975      -3.86137011     -31.80001760      -0.22392779      -1.89557357       1.01788972       1.46012213      -0.32205600       0.32416450
O      -48.67494544      -3.90814906     -32.76471712       0.70556752       0.48459444      -0.06756637      -0.40762384      -0.16564144      -0.43490275
O      -43.23276426       8.60330044     -50.05540582       2.28225986       1.39972780      -1.00752688       1.05326519       0.41498775      -0.31529086
O      -43.67779781       6.55182306     -21.72204340       0.35574998      -0.70310790       1.39176512       0.12988099      -0.21299721      -0.29864672
O      -49.49034282      -7.30291396     -36.60577457       0.13384694       0.97762185       1.84113097       0.23697169      -0.08382652       0.18596128
O      -48.49778828      -9.07764888     -35.90748018       1.39061633       0.01540689      -0.79034875       0.18685272       0.09158857      -0.03497374
H      -50.11551915      -6.14686173     -34.90682522       0.06958368      -0.10238071      -0.52493136       1.01306813      -0.76351785      -0.44104369
H      -49.70312224      -4.93177904     -33.88694090      -0.08919175      -0.30310921       0.11025011       0.38184400      -0.46731920       0.19677565
H      -43.85674000       9.64648042     -20.42564081       0.14441470      -0.47274942      -0.13628225       1.12268376      -0.24688408       0.19770485
H      -45.25227902      10.40733614     -19.55064518       0.24581862       0.11221877       0.05224480       1.56053891      -0.75017013      -1.85600882
H      -46.50983487      -9.04851224     -36.34466987       0.33227075       0.23056889      -0.26675326      -0.18657086      -0.37580338      -0.02526700
H      -45.07462382      -9.12043277     -63.20257328      -0.25277203       0.25684948       0.00432917      -1.39583788       1.36474695      -1.26319349
C      -36.07749400     -12.05389947       8.56762604       0.24540580      -0.75217402      -0.40035001      -0.63401875      -0.59594618      -0.17834477
C      -36.92115166     -12.37845831       7.44082271      -1.16709187      -0.57733749      -0.20129391      -1.22837296       0.03686614       0.12341811
C      -36.40688200     -12.60771199       9.89875857       1.39726945      -0.55879253       0.61730202      -0.90216217       1.35796571      -0.85360181
N      -34.97502915     -11.31902389       8.46374887       0.55054823      -1.04379076       0.73144234      -0.56278775      -0.99023533       2.50342822
C      -38.20513445     -13.03764379       7.66024276      -0.76648385      -0.15038793      -0.76638148       0.86718460      -1.31851272      -0.90528367
N      -36.55300027     -12.13419037       5.98952537       0.00891886      -0.26191087      -0.05678834       4.40152724      -0.72574169       5.96690550
C      -38.23692825     -13.86468079       8.81969641       0.78254560       1.77500189       0.78122471      -0.80945859       0.62784405       0.26476287
N      -39.16672636     -13.18018276       6.70424542      -0.34046429       0.01223557       0.03350267       1.64323403       1.03299236      -0.37084867
C      -37.41607231     -13.61532903       9.96415618       0.93931633       0.12690128       0.01794161       0.09602192      -1.15309273      -0.45011465
N      -39.31395512     -14.92311933       8.86136526      -0.05188167       1.27386654       0.48839278      -0.88048541       0.96559062       0.85457667
N      -37.50560315     -14.38888947      11.06811645      -0.77693394      -0.31916087       2.10512205       0.48269221       0.65065252       1.25746171
N      -35.84610896     -11.90512579      11.11082652      -0.65281732       0.75166972       1.12111294       1.38268381      -3.24360186      -1.28768936
O      -35.32871393     -12.14617345       5.77784507      -1.70089971      -0.47226625      -0.16709159      -1.06760322       0.33483131      -0.52373188
O      -37.39840656     -12.02255299       5.20789665      -0.44486632       0.19904456       1.13863216      -2.64108111       0.50639939      -3.44142401
O      -38.97852431     -16.06721993       9.11217753       1.23836787       0.75154124       1.97874024       0.09883821       0.41827727       0.03218478
O      -40.51299868     -14.59296866       8.69633401       0.07186782       0.51222021       0.77250342       2.53709425      -0.06855494      -0.14005325
O      -35.58831710     -12.56150899      12.15805555       0.18384980      -1.47168557       0.84470177      -1.49140762       0.79776808      -1.07221252
O      -35.36984247     -10.81755972      10.89491464       0.62816620      -0.30427267       1.30764043      -0.45970280       1.09183375       1.08486067
H      -34.46715849     -11.34827460       9.35324280       0.15526469      -0.18623752      -0.02908787       0.32599266       0.73612481      -1.41303879
H      -34.56164779     -11.05167062       7.62820895      -0.21483308       0.13793857       0.17042110       0.73297160       0.27124567      -1.62130261
H      -40.03146332     -13.61270665       6.86858376      -0.07410134       0.04305662       0.21270431      -0.75250510      -0.61080844       0.70875212
H      -38.99540683     -12.88546416       5.74718183       0.11433312       0.07086161       0.40571519      -0.08244783       0.16417347       0.66531249
H      -36.90287053     -14.02435929      11.84333004       0.51527006      -0.03140995      -0.09898540      -0.77664721      -1.03670379      -0.78306753
H      -37.92437030     -15.31971099      11.10086427      -0.04604059       0.15139370      -0.18639319       0.15052677       1.01670568      -0.17961142
C      -20.67807699      -0.60171272       5.02725338       0.72007052      -0.14525978       1.53265071       0.56501552      -0.52427957       1.16575851
C      -20.66566405      -1.54187486       6.09981630       0.62337186      -1.22842167       0.41877270       0.20944531       1.45950195      -0.65823358
C      -21.04254525      -1.15732028       3.74155538       0.97578203       0.10845833      -0.87812210      -0.63633703       1.01583539      -0.46043656
N      -20.26975976       0.67693717       5.22650238      -0.25268363       0.02076284      -0.25962536      -0.39318627      -1.50377179      -0.46190829
C      -21.10380198      11.97661076      18.50656261       0.03907203      -0.66205836       1.26901361       0.50790840       1.08928426       0.55651576
N      -20.36882098      -0.93589809       7.40912986       1.55076803       0.12233349       0.16568266      -0.13615251       1.55492808       0.01671357
C      -21.79276066      11.60952801      17.34665731      -0.09608595      -0.29545838      -0.34711937      -0.32052764      -0.72602754      -1.28730034
N      -20.83425354      11.23064105      19.56595746       0.48707932      -1.43020646       1.05738751      -0.21185275      -1.48728087       2.49609985
C      -21.68635578      -2.45089139       3.66431389       0.01393552       2.18198119      -0.50452465      -0.29391645       1.14985106       1.33734450
N      -22.61478772      10.41756467      17.42527461      -0.57394393       0.54746784      -0.38027374      -0.28708257       0.92752515      -1.91751371
N      -22.26587602      -2.78775599       2.54280736       0.50531393      -0.88452520       0.05158639       0.50426780      -0.27218547       0.11240893
N      -21.15540170      -0.23245217       2.63362175      -0.48042586       0.61596091      -2.14188017       1.29541325       1.76649548      -1.44362001
O      -21.09494252       0.01334529       7.69614360       0.33856104      -0.92403019       0.25701063       0.02934284      -0.61791545       0.08308841
O      -19.42455831      -1.27159379       8.09982129       0.38229907       0.66590538      -1.99951112      -0.30051454      -0.88193153      -0.44007427
O      -23.35792440      10.05326089     -11.33285577      -1.82356259      -0.07359413       0.49811340       0.22306959       0.85357638      -1.22393043
O      -22.61926973       9.80860599      18.44547285       0.18990162       0.99296285       0.66655760       0.44838381      -1.46123786       2.84839049
O      -20.52186296       0.87126846       2.75986327       0.46832680       1.35246026       0.42035727      -1.45824761      -2.01824004      -0.76443006
O      -21.72491881      -0.44028134       1.51341534      -1.07504052      -0.41016543       0.53982141       1.00860421      -0.47264148       2.69814129
H      -20.27067374       1.18908797       4.38215889      -0.02922057      -0.25269826       0.04096352       0.23619555       0.91121306      -0.69179862
H      -20.18374022       1.17417714       6.08298768      -0.09892680       0.41029822      -0.48403212      -0.22904605      -0.41549208       0.65638618
H      -21.30663056      10.31820620      19.73017931       0.35167162      -0.25245238      -0.26690547       0.52915418       1.43760287      -0.59913758
H      -20.44710943      11.70323483      20.41012769      -0.05953324      -0.09639971       0.08223408      -0.30221547      -0.75631392      -1.38331659
H      -22.03521783      -2.17948930       1.76656488      -0.11515500      -0.04545197      -0.11718259      -0.77539516      -0.35331724      -0.42962634
H      -22.74546873      -3.66203384     -25.26453955      -0.18671504       0.09531405      -0.37081261      -0.38297334      -0.50546645      -0.62097696
C       -3.18872814      13.10124896       2.74785222      -0.14771536      -0.78900421       0.89803983      -0.28881311       0.10045022       2.22517862
C       -3.28385879      12.27363768       4.00928630      -0.27907647       0.47207541      -1.61549833      -1.88164433       1.08947029      -2.22083288
C       -2.01229153      13.07601575       2.02179344      -1.63175776       0.40064263       0.54204455       1.64818582       0.01768522      -1.19519573
N       -4.12292579      14.00624347       2.53237271       0.15078789       0.65030139       0.43148889      -1.49209753      -0.15868164       1.51289651
C       -2.21584504      11.58161640       4.51060719      -0.21950601       0.22199800      -0.42020700       3.63836434      -0.69525021       1.61790639
N       -4.53236671      12.12665142       4.66267255       0.55230261      -1.10476199      -0.26257397      -2.52686061      -0.73829035       2.05142420
C       -1.03025575      11.45990909       3.65243246      -1.91111590       0.76480699      -0.77357495       0.82206409      -0.05450999      -0.98365137
N       -2.13298849      11.19136551       5.79628698      -0.38285776       0.53821447      -0.63803906      -0.73414886      -1.22975790       1.06393204
C       -0.94964898      12.12146523       2.37206957       0.14988618       0.14352243       1.04826036      -1.13448864      -0.39088203       1.58402360
N        0.23896798      10.74263458       4.06042089       0.00925295       1.84972799      -0.21608910      -0.87041839       1.14631508      -2.12630122
N        0.03625075      11.84495049       1.57844254       0.55718021       0.41588492      -0.15483173       0.73747321       2.72841462      -3.17160228
N       -1.79400999      14.09665623       0.96131874      -1.25085393       2.20305033       0.10538647       0.25748015       0.25332281      -0.89591432
O       -5.57567977      12.51328482       4.12599683      -0.56937846       0.60867480       1.23692822       0.85421740       0.41219953      -0.49597413
O       -4.68152183      11.56342138       5.79821662       0.71618273       0.74876831       1.14117843       1.45442408       0.87068069      -1.85064381
O        0.32955664      10.40141957       5.18639108       0.43394776       0.11144673      -0.14634307      -0.59260936      -1.07812263       4.28477687
O        1.21670493      10.51008904       3.32667789      -0.14833682       0.16120882       0.92856192      -0.72932713       0.40116513      -0.85655852
O       -0.63601085      14.27831965       0.50114795      -0.49077345       0.69351593       0.81927109      -1.92184980      -0.67347227       0.98379858
O       -2.76016964      14.76561171       0.52019361       0.51728069      -0.38199011       0.06569796       1.70167326      -1.21737149       0.98056141
H       -4.05598640      14.74994883       1.86986489       0.06438298      -0.05311639       0.37834632       0.39445783      -0.13766110      -0.48243717
H       -4.85182315      14.02643920       3.24857458      -0.00070917       0.03119253      -0.11266612       0.15807649      -0.05223864      -0.78869667
H       -1.29723040      10.61895455       6.02678826       0.04516629      -0.01066437       0.40906862      -1.03691890       0.82000916      -0.13160360
H       -2.98981436      11.19505019       6.45621799      -0.38007471      -0.07483862       0.27477769       1.98714467       0.05053227      -2.19081956
H        0.14715175      12.57764521       0.80984364      -0.24829039      -0.06848318       0.20651965      -0.03408727      -1.68567489       1.33991148
H        0.82972898      11.28830537       1.87695513      -0.17640460       0.14629442       0.05335314      -0.21836477       0.08638698      -0.01705872
C      -30.94313361      24.14560872      45.90869900       0.68415873      -0.24784452       0.75131016      -0.39661136       0.22389898      -1.03647415
C      -29.83127593      24.59158277      46.67767308       1.17662713      -0.27869274       1.33422892      -1.59242639       1.17615764       0.54944106
C      -31.34434206      22.78075650      45.93252824      -0.16372736       0.38911434       0.62249945       0.19945807       0.67676141       0.09517096
N      -31.55399358      24.98754117      45.02876157       1.58865583       0.10343302      -0.00158051      -0.12685355      -0.47971331       1.06404299
C      -29.14705557      23.64989557      47.47465032       1.58940348      -0.17715761       0.99020352       2.53915770      -2.37609741      -0.26637670
N      -29.84368831      26.06359101      47.03243371       1.54635227       0.39400343      -0.54575035      -1.04007484       0.50620744      -0.40421842
C      -29.24657345      22.19105001      47.20436369      -1.32358336       0.88576804       0.11392839      -2.14844536       3.56491903      -0.42352659
N      -28.14950000      23.99279697      48.28016777       0.49110414      -0.80622036       0.25735962       0.66163115       1.67003812       1.71876636
C      -30.39208432      21.78915062      46.46207975       0.40773847      -0.21757973      -1.78672533      -0.90674341      -2.47567448      -0.97366086
N      -28.27279933      21.28853935      47.72069441       0.68958639      -0.09341432       0.44760519       0.90018410       1.32547979      -0.99418634
N      -30.54911687      20.45368243      46.18818668      -0.68543337      -0.36656342      -0.72326329       2.93055393       2.26180419       2.71438304
N      -32.57779833      22.34041785      45.17812543       1.76528921      -0.72534501       0.48334217      -0.24561387       0.15140784      -1.71905666
O      -29.16859185      26.43597141      47.96946003      -0.56378053      -0.59707189      -0.35981920       0.64594229      -0.47071995       0.06821198
O      -30.58520141      26.90404050      46.45642233      -2.62731395      -1.10523488      -0.87011585       1.19413572      -1.96168697       0.41067423
O      -27.08952832      21.58522765      19.88863659       0.78645993       0.28202399      -0.10032101       0.73344571       1.38768912      -0.05477742
O      -28.61089407      20.20667711      48.06216405      -0.78388048      -0.48972972       1.54852966      -1.80656632      -3.13343361       0.87799735
O      -32.52579132      21.15469913      44.91948638      -0.16964624       0.87387865      -2.36485313      -0.73350130      -0.60024129      -0.07187334
O      -33.55511504      23.00757007      44.69697646       0.61793267      -1.75123037      -0.04394378       2.87516028      -0.16920474       2.34678449
H      -32.44962071      24.65076301      44.81406750      -0.25934042      -0.21606984      -0.01668938      -1.32885541      -0.79522397      -1.11222381
H      -31.67108823      25.93932807      45.29905775      -0.37577819       0.17936229       0.09556250       0.86267460       0.63417852       0.19517091
H      -27.72149658      23.37450353      49.01354404      -0.06049931      -0.07159009       0.02135185      -0.89648407       0.93226463      -1.67921585
H      -28.01238401      25.02362206      48.37053873      -0.00757338      -0.06358138      -0.10085129      -0.10855211      -1.38908839       0.33903816
H      -31.20385280      20.16160742      45.54149775       0.04728835      -0.37313682      -0.05157518      -1.27258371      -0.72454229      -1.24009158
H      -29.80257229      19.88967379      18.76273786       0.31185162      -0.14142255       0.01883838      -0.99936467      -0.03871118      -0.51237775
C      -62.60457575      -2.43192040       6.30291508       0.07662047      -0.35599445      -0.03353035       0.45404391      -5.89552353       0.44935541
C      -62.40846368      -1.20988836       6.70093124       0.49479344       0.86544172       0.48273399       1.82867573       2.28332770      -0.41329026
C      -63.85247949      -2.88187811       5.84918073       0.60353689       0.13784388      -1.04851120       0.89496168      -1.11612899       0.13745823
N      -61.65599426      -3.49472086       6.50048993      -1.07438099       0.81279512      -1.41849747       0.23461377       6.24400449       2.91572063
C      -63.38714574      -0.29137855       6.32133406      -0.29503981      -0.80950216       0.21907636       1.61453123       0.22999843       2.48335924
N      -60.93766656      -0.82351654       6.92747253      -1.62061825      -0.86603062       0.39158059       0.84841588      -0.24133118       3.09941477
C      -64.57351625      -0.74783576       5.71142795       0.33919426       0.28087395       0.09918616       2.30642169       1.76178303       0.83961048
N      -63.11137833       0.94561914       6.74322893      -0.75914848      -0.66541372       0.23972069      -1.29171053       0.37851779      -1.33880195
C      -64.90422406      -2.09395633       5.61218716       0.52547481       0.22809011       0.56637812      -2.55858701       0.17267822       0.06629853
N      -65.14043693       0.16392631       4.88131762      -1.43914224       1.64402229       1.38076754      -4.03708272       0.78867721      -1.86295887
N      -66.25254975      -2.46772957       5.41690192       0.93400689      -1.05668400      -1.43725692       6.95781482      -2.12507863      -2.00268036
N      -64.12196138      -4.27910898       6.12175620       0.06243009      -1.66382086      -2.01497743      -3.14096432       0.88195385       2.92543150
O      -60.52840759      -0.82319419       8.14656623       0.10178666      -1.58326013      -1.37499071      -1.54118342       0.24012683      -3.87407234
O      -60.20517911      -0.63725390       5.96309089       0.43643226      -0.30803842       0.60389095      -1.26945127      -0.26360606       1.09906666
O      -66.02649343      -0.28540412       4.13284512      -0.53409755      -0.15179944       0.82939769       1.03330355       1.54227608       0.15922630
O      -64.86310249       1.36991913       4.93188411       0.33036459       0.83501899      -0.37024030       0.12189080      -0.20647956      -0.22361773
O      -64.44516296      -5.04531354       5.27988072       0.69911803       0.27002324       0.41779064       0.32194125      -1.41704829      -2.58328793
O      -64.41592331      -4.44707299       7.29942320       0.01082274       0.01305887      -1.29927146       1.11238613      -0.19879805       0.21795129
H      -61.85899288      -4.10754361       5.84954222      -0.32124367      -0.32269590       0.12274863      -0.73978149      -4.53337614      -3.98295763
H      -60.81167593      -3.01496104       6.24691836       0.21455468       0.09294342      -0.22326691       1.07707150      -0.64184916       0.17556963
H      -63.63516718       1.58233968       6.21102743      -0.27448691       0.04957107       0.18861336      -0.64690551       1.67486522      -0.08297829