1296
Lattice="-36.821271213016104 12.970296204701777 52.795310400801625 0.0 18.543187964268427 1.162744104991008 0.0 0.0 -27.348701900544057" Properties=species:S:1:pos:R:3:momenta:R:3:forces:R:3 energy=-1487796.423915236 free_energy=-1487796.423915236 stress="0.004493625340279399 0.000569591959270633 -0.00054402536716136 0.000569591959270633 0.0021843334489438644 0.0011353370974753444 -0.00054402536716136 0.0011353370974753444 0.0015636688347086163" pbc="T T T"
C      -25.40705090      21.98178956      33.85129341       0.21896115      -1.55486686      -0.22347564      -0.78087883       1.10040556      -0.61021019
C      -25.75202033      22.72673963      35.05628226       0.19413616       0.67032022      -1.46439145       0.45237844      -1.67661036      -0.32040661
C      -26.01667104      22.40223762      32.58570636       0.82408006       0.91352864       0.29847816       1.77684027      -0.62999877       0.06779755
N      -24.62759914      20.93276453      33.83591127       2.67202542      -1.48960458       0.66347632       0.18267247      -0.20305155       2.11178324
C      -26.72490763      42.29332536      36.18352591       0.36591270       0.59644830       1.24896439      -0.42971956      -1.84539099      -2.45304879
N      -25.37708323      22.18250514      36.34257301       0.15254417       0.20509351      -0.87093241       1.22606783      -0.14104411       0.32437536
C      -27.43756192      42.44477936      34.94479089       1.33189309       0.38311335       0.65286175       0.43279314       1.01748735       0.52766930
N      -27.10331341      42.88070144      37.24626516       1.82852809      -0.70877555      -0.69775135      -0.50237272       1.82847873       4.83617691
C      -27.07365485      23.31081328      32.55874332       0.01013360      -0.46353378       0.28354427      -1.14876797       0.37617850      -0.62095530
N      -28.50363225      43.42167098      34.93500887       0.30227954      -0.58526659       1.01069973       1.45027014      -0.59237967       0.95409272
N      -27.79573974      23.63362498      31.44004277      -0.38021013       0.47135114       0.22280528      -0.68222293       0.18827781       2.71071937
N      -25.50194147      21.83258504      31.36026823      -0.75388432      -1.20862327      -0.62903146      -2.57154119       0.15744469      -0.75255865
O      -25.99704829      22.45633284      37.37371615      -0.12291263      -0.11588071      -0.89937271       0.61992617      -0.32764806      -0.81952053
O      -24.35326236      21.45503676      36.38823837      -0.48630219      -0.76937612       0.77994195      -1.27015735       0.57225695      -0.17999455
O      -29.50069081      43.10206188       6.95644338      -0.35238173      -0.37531799       0.09451247      -0.69752648       1.40074227       0.13019584
O      -28.34282478      44.43331511      35.61659909       0.04534975      -0.38066065       0.34119164      -1.19249904      -0.26475418      -1.11512676
O      -24.57253260      21.05418749      31.37067168      -0.77499600      -1.84730360       1.41708648       0.85290601      -0.15410367      -0.30521627
O      -26.12132402      22.05795081      30.28689290      -0.41817960      -1.96876302       1.08901986       0.98416128       0.04401284       1.15004246
H      -24.44494043      20.46301953      32.96878515       0.53270686       0.38514743      -0.06206809       0.20212588      -0.10433913      -0.10432280
H      -24.32441382      20.62484549      34.76020690       0.14022709       0.19055778       0.26275523       0.18170811       0.03438284      -0.72613090
H      -27.84361065      43.55184521      37.28068307       0.03696506      -0.11861435      -0.41063736      -0.01202325       0.32556134      -0.54916110
H      -26.71890973      42.69647095      38.20899543      -0.15461182       0.15140196      -0.01854497      -0.25928822      -0.24098935      -2.07181539
H      -27.64317539      22.97416049      30.71852097       0.10667779      -0.29118487       0.16596072      -0.06491780      -0.22170482      -1.03563979
H      -28.75913784      23.89713158       4.42331689      -0.44441499       0.09912732      -0.09648934       1.38381642      -0.45652946      -1.44167701
C      -39.30634191      22.02979915      25.57563098      -1.57028027       0.09212895      -0.63808151       1.53954705       1.19660076      -0.39975002
C      -40.33158625      21.17350092      25.85045586       0.07183252      -0.60592038       0.03750769      -4.59490146      -1.26315459      -0.16945288
C      -39.59886063      23.27376352      25.00783649       0.71313236       0.62156132      -1.76897470      -0.66814637      -0.21745232      -0.58429770
N      -38.11512704      21.62601234      25.89211754       0.50740922       0.00898149      -1.08762643       2.66351391      -1.27945877       1.34346282
C      -41.62052970      21.28487625      25.15970990       0.44600213      -1.56064587       0.89954767       1.59627638       0.13175031       1.00625749
N      -40.40815717      20.38836486      26.98865491       1.10918719       0.46227818       0.62132770       2.66695348      -1.80768254       1.91208772
C      -41.72517864      22.35959573      24.26055628       0.48759571      -0.56299846       0.65933641      -2.70032809       1.39186390      -1.08008929
N      -42.58201423      20.41547868      25.32971475       0.04877261      -0.99226589       0.25745849      -1.79167701       0.78131695      -1.34469730
C      -40.88312624      23.48861449      24.34333430       0.18591055       0.73158048      -0.84571919       3.34271923      -0.59171108       0.27416984
N      -43.03124193      22.61558125      23.49461516       0.49255119       0.67632854       0.60730418       1.80983902      -3.02517777       2.18386995
N      -41.04027102      24.63435113      23.74462954      -0.98427201      -0.64642463      -0.54317798      -2.85700589       1.21067685      -1.78921758
N      -38.53417563      24.17908764      24.94927811      -0.29055201       1.57745548       0.00998182       1.78041869      -0.09825751       0.60043479
O      -41.50007231      20.12125380      27.46069397       1.26834453       0.86486344      -0.17240936      -0.14957516      -0.43041542       0.91780865
O      -39.35173575      19.91379907      27.56611881      -1.46785126      -1.14331192       0.06528849      -1.80436153       1.31180054      -1.35715900
O      -44.03364591      21.92478112      23.81159517       0.39613332       0.04954886      -0.05901896       0.88347511       1.85288690      -1.17747984
O      -42.93739840      23.37091813      22.56745817      -0.63966804       0.13096753      -0.31225780      -1.50726200       0.43935793      -0.76870965
O      -37.45336914      23.91798515      25.54464506      -0.42248453       0.03194357      -0.80752633      -1.29121800       0.83499824      -1.04057824
O      -38.65388727      25.22272477      24.32989433      -0.71100060      -0.08548770       0.58509820       0.08016977       0.85841627      -0.18048944
H      -37.20769151      22.08156809      25.66154204       0.37804855       0.05985010      -0.31004313      -1.62122002      -0.05689476       0.61068917
H      -38.15208359      20.94980896      26.66490810      -0.18736761      -0.15669729       0.23965338       0.67663169      -0.15334242      -0.73756755
H      -43.44504950      20.72287940      24.84282118       0.16308394      -0.09440942      -0.12910513       0.64480349      -0.80803872       0.43947878
H      -42.62819963      19.82821956      26.13301700       0.12493221      -0.02889559       0.01970428       0.14138584      -0.19623960      -0.02051913
H      -40.36873125      25.38790851      23.76455587      -0.03779766       0.05279086       0.59807477       0.21585980      -0.47293760       0.28769804
H      -41.86648899      24.71080035      23.11732195      -0.33395270       0.37777819      -0.01245789       1.15143615       0.11366806       0.95168455
C      -33.00646072       5.34799094      12.69530368      -0.82979970       0.03723951       0.66839915      -1.66859356      -1.18237606       0.34478017
C      -31.92452082       5.69199310      11.86548591      -0.43835231      -0.22958423      -0.42393250      -0.14012459      -1.26537749       2.23546804
C      -34.19418157       6.08479003      12.55495886      -0.88347914      -0.65220314      -1.42586278       0.12950109       1.85302363      -2.02364692
N      -33.06141368       4.19675970      13.41050889      -0.39700025      -0.68359597       0.04458584       0.43408575       0.09791936       1.22869316
C      -31.87771244      25.34179752      12.23267615       0.43792765      -0.54932583      -0.72524432      -2.98103585       2.13460526      -0.95506996
N      -30.81714723       4.86335908      11.97462730       0.00224773       0.46152847      -0.24985475       0.09645765      -0.75559431      -2.04180521
C      -33.14589435      26.03664974      12.01030342       0.09617604       0.17481696      -0.68916503       1.60829907      -0.16256027       0.80833060
N      -30.78948995      25.77693504      11.67621469       0.34252637       0.27795083      -1.02633477       0.61305278      -0.43661174       0.18971542
C      -34.30164097       7.16783776      11.57879983      -0.47954262       1.11527175      -0.39170866       0.87752929      -2.32229890       0.46802222
N      -33.20677870      27.20914428      11.19732746      -1.88375152      -1.33061727      -0.28320676       0.01722401      -0.82868372       0.14218202
N      -35.49863069       7.67229970      11.33618120      -0.19163819       0.65068460       0.59058298      -0.89889965      -0.98879978      -0.12591227
N      -35.27790010       5.82063714      13.39626340       0.44212244      -0.46573720      -1.03524489      -2.32117327       1.06697083       0.28221959
O      -30.11730640       4.87103259      10.92496960       0.42235941       1.77509683       1.10854977       1.08729742      -0.76859199       1.73064050
O      -30.69158343       4.09973998      12.90474878      -0.02981370      -0.22776110       0.23675477       1.60235087       0.13976959      -0.33789758
O      -34.22629266      27.83988900     -16.03445395      -0.92788997       0.87169595       1.44337519      -0.93726463       1.91500909      -0.54992602
O      -32.32455737      27.52321047      10.42516038      -0.37089848      -0.92704451      -0.26566570       1.01853543      -0.07591633      -0.16724992
O      -34.97362041       5.38734790      14.48332248       1.61156989       0.53069070      -0.08800881      -0.51041152      -0.85386518       1.92863309
O      -36.47939794       6.08435552      13.13898025      -0.12526751      -0.17982105       0.36475774       1.81993854      -0.51605757      -0.37255034
H      -33.96855169       4.03488804      13.89458297       0.09014826      -0.13810348       0.10479696       1.62659204       0.18539075      -0.30053442
H      -32.18751229       3.88299419      13.90435469      -0.50905726       0.26092390       0.17549418      -1.54216237       0.22348355      -1.07169395
H      -30.80287639      26.70379485      11.33752391      -0.06945348       0.16338208      -0.04190919       0.36016963       0.69843040      -0.93144537
H      -30.01409461      25.15389965      11.80675759      -0.13671214       0.00603594      -0.36746201       0.75212127       0.48238507      -0.47588640
H      -36.17252042       6.95998605      11.55214748      -0.17089163       0.25860550      -0.21865312      -0.81733898       0.33541330       0.43517885
H      -35.58053521       7.98057150     -16.95048568       0.00519125       0.25322299      -0.33257536      -0.22470120       0.90911496      -0.37909056
C      -21.98922532      -3.02197155      31.08861851      -0.43333045       0.60901923      -0.30815000      -1.28235338      -1.23408179       3.47997924
C      -21.84715647      -2.01824366      32.09966327      -0.22884723      -0.22930239       2.16747317      -0.06811341       0.55289617      -2.25173580
C      -22.83789049      -4.15083409      31.37580631       0.17872118       0.40127597       0.45649683       1.12058736       1.10405178      -1.29928192
N      -21.34088017      -2.98211579      30.01497612      -1.33532928      -0.24887227      -1.34795782       4.28125692       1.71612799      -6.13397690
C      -22.57826604      -2.12013656      33.28212922      -0.51414647       0.55874564      -0.86542132       0.43199173       3.14776984       1.60634437
N      -21.43190744      -0.70847769      31.63685975       0.25563061      -0.20185307      -1.20547148       0.13926958       1.55411721       2.07379568
C      -23.24194930      -3.29417178      33.53954934       0.56818925      -0.88252916       0.30557012      -1.24455113      -0.34769506       1.18579940
N      -22.58298766      -1.08864591      34.20129662      -0.95982177       0.29694471       0.03214805      -0.32504218      -1.68473144       0.15450508
C      -23.38281458      -4.32575167      32.59012504      -0.56246883       0.66884009      -1.54752246      -3.12824077      -0.81644300       2.59762393
N      -24.24238397      -3.28901193      34.60637495      -0.58496683      -0.06933174       0.29415906      -0.31801786       1.43025426       1.87802590
N      -24.24852780      -5.31013211      32.95807636       0.64560901      -0.15571666       0.55692853       0.20562945      -0.27296720       0.19666160
N      -23.01638468      -5.20801845      30.44558543       1.45375806       0.34251171      -0.81188077       1.12382112      -1.35280764      -0.07012286
O      -21.90269759       0.26378941      32.27166364       0.28740682      -0.60565302      -0.56605464       0.53076273      -0.61048141      -1.31627367
O      -20.56794577      -0.51876407      30.78130842       0.52427514      -1.63372485      -0.90903371      -0.51830130      -0.97445444      -0.22239743
O      -24.44318257      -4.24802018      35.34279569      -1.39624347       0.17289675      -0.59399111       0.63405888      -1.25825989      -0.44480650
O      -24.87368166      -2.26031948      34.85018782      -0.60610704      -0.35284861      -1.12552082       0.30704325       0.20545403      -1.01772756
O      -24.14267238      -5.70953974      30.33385309      -1.39325800      -0.56215787       0.77158127       1.36504065       0.66058592       0.19609438
O      -21.96203085      -5.64161037      29.95985306      -1.42433649       0.46207658       0.60367503      -1.87888685       0.11453112      -0.34190725
H      -21.30514701      -3.69612269      29.30154286      -0.52153653      -0.11124226       0.29916081      -0.78314355      -0.43735909       0.76349899
H      -20.73127727      -2.17896490      29.67688729       0.30649407       0.03026163      -0.24920334      -1.45584721      -1.03566269       1.62191526
H      -23.15840194      -1.25118702      34.99631007       0.17477030       0.37342326      -0.02081467      -0.14030801       0.07712409       0.36943401
H      -22.21999719      -0.16174395      34.09858648       0.03962782       0.30104639      -0.19975533       0.14233246      -0.41381895      -0.76163477
H      -24.59528704      -5.99590199      32.32447092       0.24540238       0.04520828       0.51485957       0.23481176       0.02779256      -0.52857256
H      -24.69952082      -5.29388587      33.88142549      -0.10471350      -0.36479962      -0.14527187       0.66248727       0.17995665      -0.75499622
C      -18.49931554      -0.16981614      12.16774577       1.00037054      -0.10556119      -1.55372226       0.75471450       0.13869448       2.22024328
C      -19.64140071      -1.02219477      12.01912358       0.64270630       0.06952555      -0.13612767      -1.07450040      -0.32825150      -1.01686134
C      -18.07744217      -0.01478805      13.52210564      -0.74488031       0.13091194       0.62315275       0.33323621      -0.12169530       0.39840239
N      -17.83518741       0.44740019      11.19432297      -1.45705183       1.51701136      -0.07866923       1.10778782       0.06387450       1.15830713
C      -20.27001589      16.66607996      14.18801390       1.40066267       0.17378008       0.11890309       2.05903914      -0.49882712      -0.52173541
N      -20.11259447      -1.04315574      10.67721040       0.14493715       1.25323744      -0.35263262      -0.52913293      -2.29328809       0.03612636
C      -19.76105274      16.91336037      15.48023639      -1.20101659       0.89452785      -0.38235791      -1.24539397      -0.75046876       0.11461401
N      -21.00627304      15.57875188      13.94547256       0.57376291       0.14026592      -0.71980048      -0.04675956       0.09668170      -1.47765704
C      -18.78634582      -0.67987062      14.57141420       0.66003527      -0.80928628       0.84090608       0.09299065       3.23606173       1.85256723
N      -20.36100255      16.27132844      16.60388988       0.46307450       0.59692620       1.40826182       1.10262245      -1.51027533       2.45213595
N      -18.74891128      -0.02637148      15.79098455      -1.32752859       1.56060998       1.24385393       1.40539895       0.44458486      -0.19236216
N      -17.01168177       0.93792229      13.83908171       0.44957278       0.22644384      -0.31748747       1.08944515      -0.25144292       3.86904983
O      -21.09796522      -1.70861280      10.35218647       1.65161536      -0.73459744       0.02746859       0.21449349       0.53950658       0.53404519
O      -19.42610812      -0.47878914       9.86113597       0.45756637       0.60937341       0.93125835      -1.25473527       0.07764188      -2.53360963
O      -21.32710345      15.51076007     -10.81532457       0.35284795      -1.04568804       1.40431494      -0.46176789       0.52499961      -1.24012130
O      -19.78968336      16.37094005      17.69536605       0.51039855      -1.30115007      -0.77054516      -0.10441130       0.39584505      -0.81759395
O      -16.60505274       1.72140734      13.03574948      -0.17340863      -0.39118590       0.00754481       0.23517734       0.62383157      -1.77965469
O      -16.47888950       0.98494094      15.02866619       0.95603264      -0.39293900       1.07168055      -1.84708567      -0.89220242      -2.59598203
H      -16.91418199       0.83015337      11.33961592       0.16199051       0.01132263       0.08505885      -0.55781674       0.09080732       0.68739840
H      -18.09895304       0.18112385      10.29162462       0.49042004      -0.22825764       0.21719392      -0.16305324       0.00650976      -1.45450876
H      -21.39140341      15.00165052      14.68914983      -0.11740020      -0.31398378       0.34194323       0.43078647       0.67456102       0.00541406
H      -21.15587115      15.27995818      12.97535644       0.19095703       0.17330924       0.14911611      -0.11048146       0.66129709       0.73221980
H      -18.06618211       0.72878555      15.73720689      -0.30232243      -0.13093797       0.14831578      -0.17186592      -0.47360152       0.26671785
H      -18.70212330      -0.43173066     -10.62590472      -0.48673493       0.22772132       0.35801715      -0.70743756      -0.58714000      -0.99863114
C       -9.18879782      13.86648922      -2.17378318      -0.49200597       1.51832720      -0.75025234       1.92554017       1.46143957      -0.17073067
C       -9.89372347      13.47669111      -3.35612388      -0.81695237       0.49603080       0.08715789      -0.80624389      -1.14608590      -0.38577872
C       -8.13014476      14.80762475      -2.46997593      -0.31010607      -0.50788049       0.79237598      -0.20058719       2.29878767      -2.69307839
N       -9.35549620      13.48371695      -0.88046258       1.08318957      -0.22481667      -0.32020339      -1.69751174      -0.47344861      -1.80173669
C       -9.85772383      14.01173187      -4.71605318       0.46798721       0.11247689      -0.46577420       3.03874387       3.19202288       3.14339997
N      -10.86136493      12.37637256      -3.13894948       1.24869629      -0.88178405      -0.75132445      -0.39911440       0.93388672      -4.18369663
C       -9.02692919      15.29168472      -4.82849485       0.23356707      -0.46347189       1.05858080      -0.67674955      -1.53127041       1.37100464
N      -10.43953922      13.51229392      -5.75929473       0.17076030      -0.61309726       0.69603829       0.49607094       0.46118817      -1.21697538
C       -8.20216930      15.63892247      -3.70894207       0.32475390      -0.62784396       0.32789134       0.56202131      -1.35962908       2.28834310
N       -8.95500635      16.10822284      -5.96967483      -1.48749286      -0.12964385       0.62620380      -1.67704641      -0.22503490      -5.01442352
N       -7.48790157      16.76838369      -3.64863840       0.03929338      -0.27589484       0.89984373       0.45443076       2.53560330      -5.21094353
N       -7.03835608      15.06169543      -1.50840505      -0.16849663       0.02109528       0.05951161      -1.62791732      -3.44791871       1.09351691
O      -11.03561081      11.55485767      -4.11567905       0.09779223       1.38573388      -0.82532688       0.67128442       1.22745473       3.12591807
O      -11.61922848      12.53924323      -2.22036872       0.02410641       0.43740123       0.41462478      -0.34872335      -1.34382633       0.84349372
O       -9.76276914      15.90689026      -6.99640863       0.70448106       0.67063959      -0.91581065       1.35659711      -0.74724979       3.60994270
O       -8.09898242      16.96449990      -6.17476635       1.83550265       0.79494613      -0.05148442       0.00885424      -0.23642121       1.31435541
O       -6.92720926      13.99469540      -0.86327697       0.82962524       0.23030230      -0.21828750       1.07070731       0.57168852       0.43614971
O       -6.34008194      16.00775202      -1.22511206      -1.37233770       0.22457302       0.14605314      -0.33742908       1.06782275      -1.36657417
H       -8.53613011      13.67634632      -0.29605663      -0.19156113      -0.13161249      -0.18603150      -1.20413020      -0.19556305       0.00952029
H      -10.36016156      13.32431315      -0.64892793      -0.22365748      -0.52262300       0.12132669       1.73700350      -0.03864440       0.18635373
H      -10.15086427      14.05034684      -6.60756059       0.06300883      -0.04803078      -0.19478440      -0.90918399      -0.93944625       0.39517843
H      -10.60258217      12.52648065      -5.65562622      -0.24635853       0.03453681       0.09838728      -0.50816314      -0.31162118      -0.70994088
H       -6.75209492      16.89820657      -3.02904585       0.02705239       0.07707873      -0.39767543       1.02181233      -0.21877089       1.58408756
H       -7.21874641      17.28482874      -4.63094297      -0.16267885      -0.11131671      -0.08088491      -1.47757673      -1.95830927       3.08899261
C      -17.53148064      27.04745321      34.18125329       0.62031130       0.05504838      -0.10193805      -0.80480432      -0.16065265       0.97916290
C      -18.47929519      26.94247195      33.12971507       0.22603121      -0.97023483      -0.83317664      -3.29293132       0.22057305       0.34955374
C      -18.01792920      27.35372046      35.51824384       1.41752992      -0.28474529       1.52526360      -1.87827955       0.32552017      -1.35139322
N      -16.26916614      26.73766282      34.01408586      -0.51714244       0.45414830      -0.07900196       2.91324401       0.85149309      -0.37714253
C      -19.90811759      27.23215076      33.34023566      -0.30622543      -0.46937740       0.73647943       0.58079999      -0.38197841      -1.76061626
N      -18.21665362      26.34206008      31.90467543      -1.37167479       1.13441557       0.45345847       3.59136373      -1.26576978      -2.04484522
C      -20.31091644      27.54090011      34.63083508       0.86321062       1.62593342       1.33051742      -0.32438736       0.36560734       1.11835900
N      -20.79831769      27.14840627      32.32120759       1.12361241      -0.87153611      -0.49886712      -0.74044235       0.80739147       1.86098710
C      -19.41414513      27.55190184      35.77111081      -0.23300435       0.14657820      -0.73934093      -0.00949029      -0.39880910      -1.90325551
N      -21.76020902      27.73948309      34.83941340       0.61020624      -0.18094070       0.96744119       2.57788320      -0.89135950      -0.55784878
N      -19.91207364      27.76524571      36.96080222       0.91800239      -0.17422286       0.19065812      -1.23780670       0.08725095      -0.75221572
N      -17.18558674      27.42518191      36.63592211       0.81849746      -1.45449797       0.20040371      -0.12439051      -1.27397928       1.26160936
O      -18.88150772      26.30169262      30.87042802      -0.10525116       0.48705512      -0.35445636      -1.35412829       0.77171086       1.07055851
O      -17.08722544      25.80715922      31.81980321      -0.57438027      -0.41814680      -0.38390074       0.09728014       0.06031850       0.46125269
O      -22.38234648      28.23320380       6.58672589      -0.13606109      -0.01477976       0.80150420      -1.43300416       0.93189698      -0.15723750
O      -22.24793826      27.28481595      35.84594395       0.87986191      -0.21348084      -0.20754393      -0.97751211       0.65624983       1.08575132
O      -16.07901858      27.92405225      36.47737169       0.82367008       0.83941429       1.03666414       0.00257831      -0.24485892       0.74786320
O      -17.62092897      26.93234894      37.72957968      -1.02422691       0.54117751      -1.29243860       1.67590051       1.50836944      -1.87084672
H      -15.54981897      27.26914350      34.53990787       0.44170217       0.32634501      -0.08014841      -1.12415630      -1.01186572      -0.07048796
H      -15.94721684      26.31481286      33.13057723       0.39020018      -0.38956724       0.38620626      -0.73327587       0.42333832       0.82091216
H      -21.73634383      27.50745747      32.56031651      -0.35169610       0.32205745      -0.03614882       0.88069402      -0.48537395      -0.59744331
H      -20.61466156      26.81594169      31.40353130       0.15518239      -0.27868601      -0.07003248       0.76708604      -0.11546882      -0.14319844
H      -19.32870266      27.70287629      37.73707578       0.27816933       0.08419924      -0.01203562       0.74938271      -0.23584134       1.32803348
H      -20.90775636      27.60788653       9.66870997       0.06872797       0.16010867      -0.31501567      -0.06156086       0.44952572       0.48914306
C      -40.41632954      33.85320979      42.42254262      -0.58027061      -0.50652599       1.16805220       1.73005697      -0.96608400       0.19783333
C      -40.90409089      34.20415496      41.19319476       0.41728547      -0.47982835      -0.01682150      -0.64433081      -0.03367999      -0.54399455
C      -41.22642039      32.89752598      43.15066652      -0.31712913      -0.58325021       1.09643312       0.99681436       1.02825355       1.26390217
N      -39.15238579      34.21468660      42.80721040      -0.47811113       0.96140297      -0.33002342      -1.28164703      -0.60845897       2.65541535
C      -42.14652661      33.74848263      40.63174415       0.72747192       0.21053895       1.17800234       2.72101637       3.13632948      -4.59869503
N      -40.09253891      35.07731720      40.35814833       0.15069215       0.65022706       0.69600584       4.50765684      -3.04463881       1.49154946
C      -42.88007851      32.89716759      41.33261900       0.61700869      -0.83687244      -2.03077696      -2.66658247      -4.49480352       4.07893883
N      -42.32140608      34.13706835      39.29008437       1.27542045      -0.39748271      -0.45066108      -0.92899201      -1.79414327       2.56959338
C      -42.41293692      32.40576118      42.64711593       0.56955723       0.74888090       0.63478326      -2.41857676      -0.49904901      -0.92949080
N      -44.19003012      32.26771490      40.88825836      -0.34137211       2.05809730      -0.83175477       0.39787466       2.37295781      -0.83050209
N      -43.11486208      31.49567689      43.33371032      -0.44585194       1.38069344      -0.66402155      -0.84205082      -0.87171613       1.82264448
N      -40.88628875      32.62144253      44.52552288      -0.81313489       0.89246105       0.48660102      -1.29882542      -0.87109471       1.23779094
O      -38.87648646      34.80199183      40.14507940      -0.59309654      -0.76690271       0.00796780      -1.63124150      -0.57390431       0.58676835
O      -40.53451747      36.07413244      39.97939454       0.70876721       0.12475172       0.85235317      -2.76782993       4.24289575      -1.77993229
O      -44.48982844      32.58541428      39.74204942       0.74121087       1.10880706       1.10537369       0.00308834      -0.44466256      -0.11382302
O      -44.97634030      31.68507349      41.61706630       0.43068569       0.13913141       0.97513656       0.80606775      -0.01239705      -0.36566703
O      -39.87537490      33.08563201      45.00833180      -0.75386942      -0.89228625       0.51975638       1.92665771       1.07176383      -0.38185438
O      -41.61214437      31.97654286      45.30428438      -1.77925744       0.04568368      -0.70900038      -0.12823826      -0.08604669      -1.10513403
H      -38.74250964      33.90312498      43.70980128      -0.00188114       0.17269704      -0.04491663      -1.15719394       0.19051041      -1.08207978
H      -38.46476469      34.44008313      42.16497765       0.00700967       0.39804561      -0.19560907       0.76869296       0.57276998      -1.63467096
H      -43.13556772      33.84032571      38.81540056       0.05989716      -0.07253638       0.65525183      -0.71543392      -0.44240299      -0.08064425