1296
Lattice="-44.26589470216967 -5.493054148796913 20.953517932947648 0.0 17.638856947573963 3.0163239216524076 0.0 0.0 -26.436454068325695" Properties=species:S:1:pos:R:3:momenta:R:3:forces:R:3 energy=-1487791.3793384323 free_energy=-1487791.3793384323 stress="0.0018912841531292118 0.0007526071058803292 0.0011607327347212923 0.0007526071058803292 0.0032754052051385167 0.00212916227648638 0.0011607327347212923 0.00212916227648638 0.0017296173925151698" pbc="T T T"
C      -32.27486086       7.14132317      13.18528932       0.33104281      -0.15184034      -0.50077658       1.37943522       0.41351822       2.83829215
C      -33.14443956       7.42249141      14.32160711       1.37114224      -0.98144524       0.61732896       2.89212318      -0.10603489      -1.29636455
C      -30.86901412       7.50408527      13.39039745       0.63837731      -0.68418093       0.39832101      -1.83111010       0.19133934       1.06548526
N      -32.66146295       6.58071797      12.08601024      -0.12491177       0.85173823       0.95142778      -3.23404792       0.33510812       1.12211086
C      -32.50761387      25.52090087      18.57231718      -0.83165666      -0.31601111      -0.02980014      -2.52858543       0.62128294      -0.94518363
N      -34.50524018       7.33109292      14.12310075       1.23258084       0.63877480       1.22995048      -3.27712488       0.16557234       0.81072349
C      -31.28186456      26.18086504      18.53336431      -0.07877680       0.64748861      -0.66362596       0.41803474      -0.28006297       0.28723213
N      -33.23548702      25.52736841      19.65015828      -0.78886769       2.21790417      -0.58156044       0.06666796       0.07865812       1.79201679
C      -30.37776497       8.29379103      14.45009876       1.01311876      -0.33800518       1.12798268      -0.15721958       1.50839564       0.57489824
N      -30.90314806      26.96987386      19.67002587       0.51182114       0.26065668       0.26766070       0.99039290       0.26448274       2.51583406
N      -29.16055870       8.81344277      14.48419171       0.77572953       0.24484601       0.78245710       0.94809616      -0.25733500      -0.96094896
N      -29.95393341       6.99220439      12.53312707      -0.98660645      -0.51703729       0.70162474      -0.38434562      -3.23376188      -4.20092676
O      -35.30513514       7.98493315      14.83188542      -0.00449292       0.89152905      -0.56872653       1.37415737      -0.55639368      -0.30393711
O      -34.97947928       6.59024028      13.24802512       1.29391088      -0.18330706       0.39979176       0.78153037       0.04613032      -0.23727300
O      -31.15478298      26.62284656      -5.58053597       0.45822349       1.22348644       0.56085919      -0.57860915      -0.45815493      -2.05285219
O      -30.25889244      27.99617964      19.51034818      -1.16064984      -0.33669614      -1.30316413       0.19373717      -0.03384015      -1.09734025
O      -28.96074229       7.59333858      12.21129137       0.21886249       0.44735766      -0.84534748       1.71206855       0.72120981       0.33481546
O      -30.25861981       5.90861191      11.93962038       0.09600255       1.51306741       0.67148198       0.86411406       1.40071213       1.08038682
H      -32.02861599       6.30821366      11.41600717      -0.09102907       0.15734931       0.15213028       1.52975181      -0.82300446      -1.48722260
H      -33.65103412       6.29856801      12.09522982       0.52831924      -0.30826013       0.12983134       0.49757955       0.09515782      -0.43781672
H      -32.78545304      25.90684472      20.50350927      -0.23710544       0.09822128      -0.03537437      -0.63183246      -0.49597828      -0.55791585
H      -34.19477969      25.21171656      19.65066678       0.50826670      -0.14818143      -0.15483347       0.18975589       0.25944456       0.00304527
H      -28.53830720       8.64970357      13.66825033       0.16541765       0.08669094      -0.25152344      -0.82635805       0.24716640       0.99197543
H      -28.91396437       9.49395040     -11.24478171       0.05935683       0.47528055       0.27378580      -0.22184306      -0.28956509      -0.21761299
C      -48.69912803      -1.84103141      -6.10350716       0.14166870      -0.34068391      -0.86045635      -2.42030494       0.25594415       0.14600529
C      -47.46580092      -2.39834837      -6.06265363      -0.56790017       0.22713439       2.03881232       1.38690952       0.33549328      -1.17707843
C      -48.81997782      -0.36622068      -6.05418514      -0.73965690       0.08046452      -0.37601961      -1.31896793      -4.47902434       0.23699010
N      -49.74501937      -2.73779244      -6.14674770      -1.75803294      -0.17265154      -1.18138128       1.72813426       0.57168632      -0.89330956
C      -46.26935325      -1.66063458      -6.02453623       1.44539108      -0.84417703      -1.11970116       1.91689475      -1.95255066      -1.65975660
N      -47.44416986      -3.83858545      -5.88131561      -1.01419208       1.02395495      -0.13007421       3.69425625      -1.76199799      -2.79558807
C      -46.38880633      -0.28552626      -5.84927855      -0.96150678      -1.18916106       0.35238981       0.72375664       0.87085902       0.75610565
N      -45.09709816      -2.36223059      -6.28432285      -1.27259169       0.01104793      -1.44018002      -0.38290412       0.51657166       0.20443716
C      -47.66350860       0.32519766      -5.81495773      -0.27507002       0.52114975       0.00147422       0.74983142       3.46605597       0.41775615
N      -45.18152779       0.60755594      -5.75857077       0.54915344       0.77885614      -1.37448529      -3.59286926      -0.74160683      -1.16980193
N      -47.70030118       1.67423149      -5.61834089       1.46000858       0.19301764      -0.52743267       0.68891671      -0.75648029      -0.42310523
N      -50.15401221       0.13817915      -6.03216601       1.28306549       0.99727546       0.39252108      -1.16432126      -0.17287665      -1.18166247
O      -46.87173439      -4.71723837      -6.59545065      -0.08278050      -0.18497042      -0.61049893      -0.51653444       2.69432213      -0.32344406
O      -47.88660714      -4.15253880      -4.86385950      -0.79142643       0.52712685       1.39416838      -2.35236008      -1.54585290       4.83631728
O      -45.32657413       1.76115807      -5.34756064       1.01373717      -0.40594679       0.55057556       2.38854416      -1.43845700       0.09196508
O      -44.23725068       0.17312107      -6.35818221       0.84555295      -0.29709496       1.63240668       2.00382044       0.22369467      -0.08255544
O      -50.34742836       1.31189509      -5.80020024       0.73577648       1.10053595       0.05437555       0.65224547       0.75882422       1.20938079
O      -51.11726095      -0.59071336      -6.34816728      -0.14344928      -0.70906512       1.15230462       1.22635460       0.38336063       0.60681444
H      -50.61470436      -2.40252962      -5.84269633       0.01747729      -0.04609344       0.02412198      -1.21083844       0.07895507      -0.22913943
H      -49.59224962      -3.68292184      -6.51528436      -0.06060256      -0.02776327       0.34327981      -0.39931259       1.02029148       0.66338767
H      -44.24876927      -1.83030347      -6.50177064       0.18550602       0.16759477      -0.18183964      -0.92991685      -0.44844286       0.48349799
H      -45.13778590      -3.36680896      -6.53339115      -0.02417017      -0.02235671       0.23282460      -0.13707285       1.27925518       0.26857406
H      -48.55670604       2.13506079      -5.68357968       0.21714040       0.15500728       0.43431216      -1.53084091       0.33713518      -0.15210992
H      -46.83979318       2.20088353      -5.75044798       0.13522224      -0.22000864       0.05240637      -0.89527696      -0.21790672       0.19386825
C      -45.29058963      -2.77181972     -26.95916981      -0.97883352      -0.75608905       0.58592860       0.85356903      -1.15839966       2.39326959
C      -45.48106809      -1.37510440     -27.03599101       0.87172622      -0.16696167       0.51624274      -1.29552016       0.53910251      -1.33654039
C      -44.98061428      -3.24855120     -25.58034736      -0.25265525      -1.68640100       0.00640249       0.77093970       3.14749750      -0.06598887
N      -45.37628021      -3.56492384     -28.02755182      -0.83768200      -0.12604132      -1.22820491      -0.24789410      -0.72367541      -0.43095541
C      -45.43013107      17.24433887     -22.99188584       0.79429900       1.38196568       0.32982455       1.32776369      -0.71475538       0.27789202
N      -45.88608015      -0.88969186     -28.32312133      -0.59513439      -0.19789287      -0.00331977      -1.49427195       3.81642363       0.20915432
C      -44.76286345      16.76362119     -21.81932370       1.51395057      -0.31793855       0.08071782      -0.27292246       1.07620739       1.66353712
N      -45.72250706      18.51942318     -23.12809481      -0.22099869       0.40537091      -0.67172132      -0.97380990       2.47458980      -0.25983317
C      -44.47914353      -2.22339903     -24.58466124       0.49056189      -0.56952167      -0.36549099      -0.70008066      -2.72814775      -1.49243365
N      -44.62919750      17.64556281     -20.66846884       1.31665190       0.28515781       0.56684258      -0.78100533       2.88193345      -1.85940223
N      -43.75096220      -2.62780042     -23.53826099      -1.10824298       0.14345075      -0.26307492      -0.31960807       2.78472941      -0.35224752
N      -44.95332927      -4.59042362     -25.23811149      -1.09338053       0.36676828       0.55630408      -0.68959826      -2.04132768      -2.32984275
O      -45.36653291      -1.32816594     -29.32635498       0.63370883       0.37180693      -0.77114801      -0.52743259      -0.31930220      -0.48896878
O      -46.69823002       0.12266344     -28.36167212       0.17677242      -1.66953831      -0.93262990       1.89441546      -2.94450406      -0.39275332
O      -44.24379903      17.28229312     -46.01868672       0.29236800      -0.50322284       0.09824804       0.34748632      -1.37114188       1.03057997
O      -44.92545445      18.84893327     -20.79127841       1.51511820       1.58360207       0.24036601       0.25247570      -0.83312703      -0.20491578
O      -44.99156439      -5.40205872     -26.23629376      -0.81786090      -0.73068331      -0.31279886       0.06140144       1.02635067       2.69149626
O      -44.99531832      -4.97371306     -24.06138286      -1.34968742      -0.89624145      -1.19388553       0.69652753       0.18000794      -1.02596597
H      -45.44333335      -4.60095610     -27.91572466      -0.33570263       0.25395417      -0.14544614       0.44824660       1.64273495       0.22453024
H      -45.34353263      -3.11180239     -28.95445523       0.02859006       0.15470238       0.12166494      -0.23660891      -0.54662811       0.94514534
H      -45.32957190      19.26154739     -22.51768688      -0.00337076       0.01998137      -0.32268790      -0.31344394      -1.55889419      -0.19970428
H      -46.37163437      18.93266869     -23.81451457       0.08432437       0.63813756      -0.02431758       0.98567300      -1.40805032       0.04195645
H      -43.66176199      -3.59703434     -23.43016596       0.07502680       0.22268977      -0.23947586       0.30052338      -1.12086898       0.71688071
H      -43.49015610      -1.83446793     -49.32136495      -0.07301131      -0.00774116       0.15967258      -0.38274287      -2.14139398      -0.56067363
C      -35.77044816     -15.82693831       8.15616301      -0.09203876       0.16066247      -0.95882260       0.68947975      -2.80131179       0.18805655
C      -35.08296563     -14.74671306       7.55947956       0.00586094      -0.54257606       0.18091521      -3.63662809       3.29665173       1.90869228
C      -37.02288287     -15.68853001       8.76489142      -0.32778876      -0.52914057      -1.70487641       0.21919978       3.01654824       0.19649249
N      -35.24695866     -17.08395423       8.16874120      -0.31478083       1.01952694      -0.28313724       1.35515075       2.13997274      -2.63743448
C      -35.66630076     -13.38343840       7.62097565      -0.10969323       0.11944970       0.10627367       0.27418483      -1.53046910      -0.34976851
N      -33.75170839     -14.78594174       7.30072980      -0.77208801      -0.97504953       1.53963217      -0.56222665      -3.65817081      -1.66992657
C      -36.95330101     -13.21993794       8.20165547       1.13189400       0.99385159       0.82708671       0.54771334      -1.01420047      -0.39859117
N      -34.95978300     -12.36487677       7.12805379      -0.38713384       0.72297986      -0.09663525      -0.54072800       0.37148050      -0.58909019
C      -37.49639266     -14.33273389       9.00204343      -0.43008620       0.23693621       0.84059083      -1.38583922      -0.71553976      -0.96817294
N      -37.64115939     -11.97875697       7.98782649      -0.91616503      -0.99987912      -0.51275521      -1.56438535       0.71777714       3.52992388
N      -38.54185462     -14.13204935       9.80281828      -0.61096662      -0.32925139      -0.66022218       1.02202120       1.16444929       0.42382307
N      -37.61002063     -16.76677923       9.48562225      -0.03371922      -2.01268755       0.31412972      -0.99836112      -2.24611469       1.91634883
O      -33.06543772     -13.83995391       7.40363845      -0.84458219       0.49320525       0.37152884       3.08829485       2.73000792       0.52566187
O      -33.36075830     -15.86501259       6.86095713      -2.06003730       1.35049724      -0.30413074       1.25998469      -0.94269470      -0.41814329
O      -37.41973004     -11.22502913       7.05774591       0.13541261      -0.58183175      -0.40431556       0.09529545      -0.70148256       0.09071158
O      -38.48250579     -11.66491156       8.92233133      -1.18451285       0.01678940       1.79830170       1.60383224      -0.52905447      -2.26159474
O      -38.85165789     -16.93371671       9.42835598       0.93727959       0.37041175       0.02260946       2.26939198       0.70689086       0.06235548
O      -36.88902649     -17.53146572      10.20804883      -0.44907283       0.98663658      -0.59878590      -1.61141207       1.67000241      -1.96730804
H      -35.46455079     -17.71169924       8.86252370      -0.17238714       0.17473971       0.27258521      -0.92858005      -1.27664126       1.50279208
H      -34.37726977     -17.22582636       7.65403679       0.11984020      -0.08646540       0.34785565      -0.42787043       0.25745556       0.34420069
H      -35.45309929     -11.61736557       6.66875284      -0.23108436      -0.39694177      -0.00326571      -0.32938749      -0.06743155       0.55184650
H      -34.04724780     -12.56734092       6.73695702      -0.17426485      -0.16392983       0.07792424      -0.40265015      -0.02506589       0.08951829
H      -38.86425038     -14.89848831      10.40809862      -0.13332437      -0.10209504      -0.22950782       0.08050438       1.09935434      -0.59711545
H      -38.61963815     -13.09746294      10.01227864      -0.00545924       0.32927572      -0.09029531      -0.69993129      -1.69949813      -0.10004087
C      -17.58082738      -5.66049903      -1.47719172       0.63827880       0.43330849      -1.22055969      -1.40254031       1.12361122       0.56939428
C      -17.36189224      -5.72354513      -2.87231994       0.75369783      -0.37787192       0.58467896      -0.55484851       1.16092001      -0.82319414
C      -18.73399567      -4.93707024      -0.95674212       0.97725205      -0.49985050       0.07704799      -1.64179165      -0.88262102      -1.76748444
N      -16.74011245      -6.21082539      -0.64157693       0.59661777       0.00456197      -0.41286532       1.75508060       0.34690049       2.00157957
C      -18.35395555      12.46989989      -0.73244257      -0.48688555       0.04321933      -0.45628695      -1.34586378      -0.67043435       1.95459597
N      -16.03247270      -5.91862762      -3.34119632      -0.02583742       1.21750397       1.21575980       1.94776089      -0.12154932      -0.36952650
C      -19.71322624      12.60779333      -0.19857208      -0.99667701       0.91538475       0.44949752      -0.18552177       0.52066503       0.69443429
N      -18.07306867      12.81302531      -1.95419989       1.34646758      -0.94146447       0.38371939      -3.45664199       1.04512727      -2.41254153
C      -19.95232174      -4.82212103      -1.77190891       0.45723628      -0.52107910       0.29043497       1.42526838      -1.17032112      -0.93572629
N      -20.83918315      12.66123925      -1.10081572       0.79378434      -0.66714591      -0.61091730      -1.69495533       0.15952997      -0.72805748
N      -21.19131179      -4.66397877      -1.37143982       0.79773638      -0.15106762       0.64481410       0.50041252       0.84956165      -1.15499509
N      -18.80377650      -4.58900798       0.40926565      -0.77543474      -1.39732185      -0.94302169       3.05634025       0.03180220       1.30772905
O      -15.21967798      -6.51311773      -2.62172775       1.37194274      -0.02495415      -1.48803367      -0.17588940      -0.74752133       1.01459917
O      -15.59747498      -5.50825140      -4.39589707       0.49076002      -0.38375564       1.09438602      -1.66755155       0.41300089      -0.81984756
O      -21.94269291      13.24584152     -27.22959822       0.47278819      -0.38338444       0.42179874       2.86188810      -0.94070768      -0.63012671
O      -20.75612405      12.07130921      -2.20061755       0.43128768      -0.81285984       0.40939490       0.17342181       0.84328269       1.54998646
O      -17.69830219      -4.37532941       0.97316269      -1.30543665      -0.07939263      -1.77684554      -0.92905867      -0.11343113      -0.55766996
O      -19.81509231      -4.51273105       1.04401834      -0.17275687      -0.36656176       0.33396224      -1.87096970       0.01191110      -0.25756254
H      -16.82864536      -5.87795658       0.34573306       0.00135342      -0.19441720      -0.12333891       0.28667961      -0.48963122      -1.31880773
H      -15.78064321      -6.34249776      -1.03446849       0.11452404      -0.26350715       0.10560583      -1.12243839      -0.42778482       0.51740802
H      -18.85488122      13.19079518      -2.57453316       0.06975784       0.27528629      -0.14374079       1.67326791      -0.85811887       1.32720166
H      -17.17373584      13.12473687      -2.13964249       0.06837296      -0.27091947       0.20611590       2.04038053       0.05778349      -0.67466063
H      -21.58699255      -4.70861535      -0.48198708      -0.05563773      -0.13936461       0.42423174       0.47126492      -0.04245536       1.58538165
H      -21.85307957      -4.44645502     -28.53850023      -0.13557758       0.19740067      -0.22647362      -0.26106619      -0.21137730      -0.16272117
C       -7.46421176      10.95649436      -3.90620075       0.27517407       0.31902057       1.83400311      -0.32450667      -2.56239477       1.74127409
C       -8.13585123      12.17714413      -3.72184488       0.88810694      -0.69841156       1.49467818      -1.28828771       1.68575165       0.14812101
C       -7.52690188       9.97689496      -2.80940000      -0.29388817       0.71225679      -0.39603434      -0.38622695       1.52349556       0.76273291
N       -7.01842239      10.57449871      -5.07085136      -0.49881214      -0.87275439       1.11972596       1.63742524      -1.89707431       0.18963750
C       -8.76634319      12.67137548      -2.50376743      -0.24714876      -0.47480752      -0.11155937       0.55856376      -1.80859773       0.88691779
N       -8.32023547      12.93659841      -4.93972199       0.28771638      -0.55635405       0.12251412      -1.06385118       1.86870168      -0.93336388
C       -8.92741710      11.66006393      -1.44666141       0.44652060      -0.83243391       0.82799551       0.55103214       1.73588340      -2.54286531
N       -9.08435072      13.95025490      -2.33436041      -1.29869684       0.05735300      -2.15639749      -0.49815949      -1.23812222       0.56980305
C       -8.33459243      10.37405112      -1.64201553      -0.18940711      -1.14191107      -0.78004526      -0.17504454      -2.61486075       0.46190285
N       -9.69683094      11.98490846      -0.30003086      -0.12266259       0.15894582      -0.09635351       1.12328584      -2.00801774      -0.25965538
N       -8.56271187       9.44325977      -0.70159301       0.22831901      -0.98424006      -0.07796560       1.46071306       0.58912660      -2.40964330
N       -6.85216699       8.68940632      -2.92654878       0.95349520      -0.62168268       0.46799081      -1.20914856      -0.76031906       1.03398705
O       -7.39523457      12.91944208      -5.74492069       0.12805579      -0.57080974       1.00019560      -0.00635052       0.39691677      -0.19708857
O       -9.35646267      13.60577869      -5.19562852      -0.14072070      -0.23429611      -0.56039906       1.59659845      -1.45389129       1.33460663
O      -10.06029276      11.05117055       0.39518396      -1.07816519      -1.06329916      -0.13444636      -0.86546216      -0.13945007       0.79327268
O       -9.92600361      13.12585075       0.00331091       2.32526070       0.37244474      -0.22222828      -0.49811829       2.11693667      -0.04742434
O       -7.20670466       7.70088167      -2.20057155       0.32590631      -2.06487412      -1.12309626       0.22999004       2.89118790      -1.93145662
O       -5.95499468       8.56284926      -3.76719594      -1.12848618      -1.14178768      -0.72257567      -0.34675034       0.22317751       0.39317955
H       -6.27792705       9.82773019      -5.14003856       0.08439621      -0.19140615       0.09964824      -1.63562316       0.97083452       0.40140830
H       -7.16258195      11.23780340      -5.77876485       0.01803308       0.22738149      -0.56694612       0.58865314       0.56781645      -1.32739348
H       -9.63654058      14.26538766      -1.52888026      -0.24555651      -0.05802384       0.02225120       0.68910261      -0.52964876      -0.52988372
H       -8.78328444      14.57470511      -3.03601152       0.19704900       0.22349916      -0.23085421      -0.05917334       0.98907427      -0.89053619
H       -8.14438133       8.56579501      -0.90425786      -0.14552245      -0.27881421      -0.06655253       0.23682847      -1.05961246       0.01728901
H       -9.33971883       9.59006282      -0.13385601      -0.04998444      -0.51403327      -0.06262314      -0.98178035       0.10722601       1.40924639
C      -22.35439977      34.97555542      24.92851115       0.81096800      -0.69886681       0.54211044      -0.88481800      -0.47628784      -0.58668136
C      -23.51196713      34.41939526      25.59042721       0.99622423      -0.44698112      -0.30230093       0.88675302       0.27548410       1.75800319
C      -21.16509271      35.19792712      25.68135456       0.78919918       0.24468261      -1.35526297       0.25329916      -1.89481757       1.34140955
N      -22.33405783      35.14524293      23.58082836      -0.63816691      -0.69031525      -0.99477166       0.82260936       1.27021783       0.87344244
C      -23.55913432      34.18352278      27.06963146       0.35078662      -0.32941517      -0.27536479       1.19274655      -0.85856052      -3.19755777
N      -24.60185161      33.94287528      24.81118655      -0.13280878      -0.32824951       0.71926611      -0.33366928      -1.55082660      -1.11948961
C      -22.30111530      34.30851706      27.74489409      -0.39640457       0.68238970      -0.19646510      -0.16724219       1.31363516      -0.19471100
N      -24.63799710      33.71324283      27.64628218      -0.42972146      -0.52129271      -0.88382669      -1.38039526      -0.49073919       1.20443481
C      -21.07965196      34.69690983      27.01805897       0.29506027      -0.34518867       0.83963998       0.17247420       0.68235031       3.00473449
N      -22.30061998      34.26775185      29.21800964       0.21148740       0.31240901       0.84427016      -0.30194476      -1.32229637      -1.32237799
N      -19.91214283      34.80647532      27.71562037      -1.43125285      -0.14060042       0.91984214      -1.28335959      -0.08314587      -3.25918707
N      -19.93168120      35.56443245      25.08291014      -1.05673092      -0.27228919       0.81639718      -1.56940815       3.34970014      -2.01911514
O      -24.87938540      34.56035786      23.74805845      -0.52876351      -2.03086265      -2.00803158      -0.12622777      -1.01558878       1.53593605
O      -25.15752439      32.84837108      25.12128355      -1.71183869      -0.82390385       0.73393707       0.70184058       2.59842740      -0.63411074
O      -21.24793229      34.09158096       3.33761542       0.14154935       0.27368307      -0.39424699       0.94507015       0.21208718       0.81188459
O      -23.36332643      34.27298338      29.84894927       0.27584565       0.36104385       0.98742271       0.06064023       0.49954907      -0.28966173
O      -18.83983623      35.31842914      25.51459679      -0.77213983       1.24218226       0.03891666       1.58592531      -1.47901222       0.76075093
O      -20.00446434      36.39424966      24.14046670      -0.53490340      -0.13043476      -0.37622529      -0.54546506      -0.88595985      -0.26365464
H      -21.58125709      35.81743388      23.29124952       0.01456090      -0.30695625      -0.50407386      -1.08333749      -1.17854144       0.06608316
H      -23.25046071      35.16936105      23.14714638      -0.08655806      -0.11371849      -0.25884181       0.36359488       0.21034097      -0.19240192
H      -24.50370888      33.67680749      28.65829441       0.09719139       0.18753501       0.14582723      -0.58111572      -0.17327050      -0.20028518
H      -25.51581417      33.27870096      27.25125889       0.38921473       0.13335665       0.09694781       1.86965018       1.01683714      -0.07695596
H      -19.11991372      35.08454043      27.17641198       0.02666928       0.23128555       0.06028683       0.26373182       0.06453426       0.03261256
H      -19.75891294      34.61955274       2.21070725      -0.02649634       0.16460940       0.32233655      -0.61493425      -0.49515852       2.11335784
C      -61.86574034      11.88135841       6.38265972      -1.09680991      -1.95971021       1.05791327      -1.66913696      -0.47334368      -1.22960993
C      -60.95260934      10.87274439       6.59559299       1.18594818      -0.62961184       0.05165095       2.17454448      -1.12201160       1.24375576
C      -61.38927042      13.14008450       6.05940951      -0.50411589       0.09864140      -0.60341017       1.62909810       2.97504499      -0.56216795
N      -63.15326198      11.58523099       6.16714617      -0.71717901       0.70403121       0.23692847       0.88414255       0.98364791       0.19170420
C      -59.57985230      11.20961893       6.77095253      -0.63145501       0.81900383      -1.05637492      -0.15737915      -3.48579492       0.00490523
N      -61.29317707       9.50467182       6.89265900      -0.63672271      -1.30814352       0.62173218       0.11538653       0.38192403      -2.05071504
C      -59.20906010      12.49332696       6.63476543       0.22081457       1.07346637       0.39057088       1.96185852       1.00189555      -0.03624829
N      -58.66820993      10.22278543       7.02070751      -0.23050251       1.06316762      -0.85816185      -0.18578461      -2.35152729       1.52622793
C      -59.99906703      13.54399801       6.14100809      -0.94546862       0.08124851       0.49039726      -0.70975746      -2.17060214      -0.24942061
N      -57.89737950      12.77867723       7.31225729      -0.64723631      -0.40377669       1.69057614      -4.42912429       1.86473915      -1.48306051
N      -59.49345541      14.68026302       5.68499751      -1.61598096      -0.39683216       0.24332464      -0.72797001      -0.83702521       1.38572585
N      -62.24381430      14.10990840       5.43980785       0.54243595       0.05172260       0.22097629      -1.46995440       0.30641917       0.77753700
O      -62.41357262       9.31763787       7.34173902       1.03715660      -1.22770245      -0.13922464      -0.32481308      -0.80116837       0.51346928
O      -60.51956802       8.60615074       6.53255022       0.39618412      -0.40057854      -0.35038094      -1.35638420       0.33512509       0.94898550
O      -56.85925278      12.42867067       6.87114329      -0.49525549       0.52454376       0.74414046       2.39592230      -0.59110965      -0.20336395
O      -58.16480985      13.47810708       8.25648362      -0.23808914       0.10898595      -1.13974034       1.68545785       0.59634527       1.79997643
O      -63.44177256      14.22395362       5.82782358       0.62368282      -1.24111851      -0.70522899       1.79099714      -0.25655990      -1.31437810
O      -61.74123569      14.85759657       4.60475730      -0.20036163      -0.59396999      -1.85619171      -1.01878229       0.00392932       0.23559531
H      -63.74367598      12.43084558       6.10066527       0.39990682      -0.13202818      -0.29515734      -0.27039354      -1.47925519       0.38331757
H      -63.26896313      10.65155092       6.51702145      -0.22633222       0.35332731      -0.17141774      -1.81747878      -0.02198166       0.05254307
H      -57.75246369      10.37948063       7.34812577      -0.21883820       0.04041892      -0.28622111       0.91733078       1.16992163      -0.20604929