1296
Lattice="-44.44790313955529 7.792415693683216 21.77160967579742 0.0 15.652159180345262 10.336060124230379 0.0 0.0 -28.984209617252972" Properties=species:S:1:pos:R:3:momenta:R:3:forces:R:3 energy=-1487786.633836915 free_energy=-1487786.633836915 stress="0.0026157351523855297 0.0014716615302177865 -8.4746549154059e-05 0.0014716615302177865 0.004300720565319005 0.00012760299340525252 -8.4746549154059e-05 0.00012760299340525252 0.0045771540781653465" pbc="T T T"
C      -24.95821682       8.22847550      10.58532530      -0.04860628      -0.73986920      -0.10603719      -2.62935204      -0.25979445       0.80695011
C      -25.54991622       7.68640585      11.82244650      -0.10359531      -0.01601234       0.80928178       0.01062470       0.38669396      -2.78973232
C      -25.71049540       8.27707639       9.38575454      -0.62287394       0.17784981      -0.74590170      -0.95587963      -1.11677204       0.15897942
N      -23.82230608       8.83640547      10.56584474      -0.28413771      -0.20096209      -0.73585419       1.27107280      -0.03917695       1.96142078
C      -26.79410403      22.65033067      22.05572135      -0.24991109       0.94852926       0.37472527      -0.13860028      -2.30437718       2.77456419
N      -24.71122817       7.66982388      12.91455609      -0.34150019       2.07159197       0.02835391      -0.09605843      -1.43174914       2.37440205
C      -27.40959219      22.61248873      20.80935378      -0.86307141      -0.38831195       0.67794276      -1.05769307      -0.24188730       1.48649570
N      -27.45349430      21.91619415      23.14089419       0.24359387      -1.39836890       1.44155184      -0.27025768       0.94399665      -4.66281779
C      -27.01963273       7.68907087       9.34169879      -0.62961128      -0.39434688       0.86826317      -0.19768481      -0.72242495      -1.29610172
N      -28.79174626      22.01756091      20.90100797       0.18380781      -0.84023569       1.16285465      -0.16624906       2.08010489      -1.63399631
N      -27.80218023       7.60899256       8.22501498      -0.61551700       1.43638242       0.47117353       0.65125498      -0.39035183       2.73413889
N      -25.20246131       8.82583331       8.19583354      -0.42287677       1.17783276       0.09656258       0.88911677       0.31953491      -1.13698441
O      -23.65369155       8.28734311      12.94131871      -0.04557651       0.36351660      -0.76889570       0.96244753       1.20741370      -0.13997113
O      -24.98553839       6.98538021      13.89815986      -0.16393316      -0.64470988       0.70754739      -0.99698369      -0.22288369      -0.17603655
O      -29.71403366      22.79325503      -8.31889474      -0.21264512      -1.03305269      -0.54088228       0.54575252       0.07174364       0.50453774
O      -28.97804868      20.86201449      21.13985419       0.31559561       1.74224069       0.09628079       0.49222509      -1.48120645       0.34746875
O      -26.02395084       9.05227164       7.31914884      -1.01877098      -1.17568757      -0.32625431       0.34520149       0.46349074      -0.46877916
O      -23.97488090       9.03004412       7.95631963      -1.10986250       0.94587402       0.59920496      -2.16430770      -0.65375108       0.86798485
H      -23.59900614       9.32564186       9.78409736       0.17986170      -0.18951253      -0.12159591       0.94542668       1.29027671      -2.14144996
H      -23.39162667       9.05766289      11.43544115      -0.04801314       0.15906125       0.51896094       0.53605536      -0.11836156       0.38489394
H      -27.93334805      21.07853519      22.76599997       0.09973652       0.11877593       0.59036451       0.40163734       1.11792502       0.65053773
H      -26.98803642      21.67040421      23.95076597      -0.20813685       0.36529135      -0.02584396       1.76533787       0.13432546       1.73229899
H      -27.55309841       8.25187483       7.52171864      -0.35940909       0.02268157      -0.40348145      -0.26402842       0.39730546      -1.05416003
H      -28.72096636       7.25932086     -20.56219251      -0.16324879      -0.13701827      -0.22285713      -0.30779188       0.24060078      -0.65978304
C      -48.24702337      16.59585325      -0.82942393       0.07207345      -1.54168793      -0.01446808       1.02737251       2.14977236       2.57756060
C      -47.25912732      15.63487196      -1.13075651       1.43007429       0.45790918       1.16552846      -0.66485988       2.92765295      -0.21289743
C      -49.61774342      16.26215148      -0.90810436       0.59196922      -0.17304537       1.55590091      -0.77947330      -1.39380006       0.03699308
N      -47.88828440      17.81512459      -0.23200634       1.33477306       1.58481091       0.46612520      -4.37727345      -1.41026156      -2.21418338
C      -47.61627427      14.40938219      -1.67930404       0.97100803       0.35408868      -0.35002043      -0.35512938      -1.91808650      -0.02314573
N      -45.91156668      16.22027281      -1.23060511       0.39534218      -0.43372803      -2.26251171      -1.44289945      -3.11480559       0.33762559
C      -48.96045895      13.96392950      -1.49682428       0.05040118      -1.19433474      -0.54329553      -0.86033399      -0.05521184       0.99897417
N      -46.73354563      13.58473436      -2.21799861      -1.16474325       0.96264136      -0.12356747       0.85888357      -0.89670274      -1.48553898
C      -49.94398094      14.88004015      -1.00639256       1.06700557      -0.62411932       0.08647481      -1.40514869      -1.22726150      -1.11957941
N      -49.35077310      12.53467897      -1.79062834       1.01195790      -0.43876991      -0.35092535       1.82905687       3.26153935      -0.73761739
N      -51.24982432      14.41443548      -0.84706825      -1.49263958       0.21602673      -0.76028691       2.36493323       0.63786695      -0.60372721
N      -50.62579829      17.29231242      -0.75098574       1.09488230      -0.38218726       1.42936356       0.71694292       0.42291087       0.24064715
O      -45.27202637      15.79709963      -2.15369722       0.67131099      -0.93740964       2.67805835       1.41441876       0.35631704      -1.45675529
O      -45.48010203      16.89207588      -0.33509502      -2.32155620       1.99754274      -0.77529886       0.69669269       1.20972014       0.79569335
O      -50.48193436      12.19183301      -1.74123883      -0.88902939      -0.78704056      -1.01338272      -2.70621742      -0.91960430       0.82406648
O      -48.49110299      11.81181273      -2.23130491       0.86870791      -0.67272774      -0.44537859       1.12628250      -1.50243703      -0.19709085
O      -51.77534202      17.14580875      -0.38202033       1.61810043      -2.72648510       0.20923107       0.05462158      -1.33311689      -0.07018717
O      -50.19470890      18.40770263      -1.00401163       0.27204856      -1.18731202       0.28475796      -0.34554294       0.94185600      -0.38515180
H      -47.09899548      18.02189491       0.23959316      -0.36329866       0.13026474       0.08771108       3.11226108      -0.05809453       1.10286721
H      -48.67981949      18.40066642       0.02989649       0.36510051      -0.10717829      -0.12329852       0.56364979      -0.31030579      -0.42746581
H      -47.00211297      12.61306318      -2.49432499      -0.33103891       0.10663237      -0.25148274       0.25896116       1.60298765       0.53689316
H      -45.95759308      14.02102566      -2.68825974      -0.01565793       0.17012389      -0.15806351       0.13588200      -0.16435184       0.59782714
H      -51.80986979      15.02853655      -0.36551042       0.14864121      -0.08950762       0.22851150      -1.46525978       1.86158370       1.06626822
H      -51.32334673      13.50521083      -0.47533564       0.19180150       0.07854275      -0.03938934       0.05255773      -0.92305412      -0.16694266
C      -41.70714221      11.25351543     -29.70609411      -0.93224388      -1.36599853       0.58025983       1.37337317      -0.02886017       1.12706831
C      -40.61635031      10.35560771     -29.28851105      -0.85926440       0.03170853      -0.94244525      -0.75260907       0.72606092       0.34056099
C      -42.89653414      10.62189333     -30.21327427       0.88505967       0.49302089       0.83194919       0.08201071       2.29556399       0.96877004
N      -41.55763120      12.59269232     -29.59440363      -0.58132788       1.00518096      -1.34647161      -1.39914160      -1.55987884      -0.71514928
C      -40.82881242      24.58871587     -18.90807475      -0.00996242       0.82783550      -0.07279100       1.90508782      -1.19954369      -1.18841026
N      -39.38440399      10.91859313     -28.80186806      -2.31805679       0.65809886       0.49981462       0.65331712      -1.05777952      -0.21725274
C      -42.08972461      24.00169821     -19.21076523      -0.91853149       0.10247247      -0.83852640       1.20257032       3.54072365      -0.05664013
N      -39.74739069      23.79330850     -18.83794548       0.93576821       0.00844741       1.11576386       0.10479907       1.78672983       0.08277780
C      -43.09863086       9.20621907     -30.06402906      -0.23413631      -0.77114445       0.34699646       0.66620096       0.37055402      -0.87245609
N      -42.30365855      22.68427537     -19.00955947      -0.36923475       1.60264673      -1.32812970      -0.61209064      -1.63918428       1.76177437
N      -44.15970621       8.73224645     -30.57998223      -1.10511613      -0.89607960       0.35667859      -2.38825661      -1.86334945      -0.43327907
N      -44.09064790      11.51324224     -30.43961284       1.22153667       1.06160349       0.18189320      -0.46040172      -2.98379398       0.00940310
O      -39.24614740      12.11910444     -28.69564861       0.47861078       1.23707546      -0.38090365      -0.06466428       0.50779052       0.10147538
O      -38.41693346      10.16119065     -28.47609494      -0.66701988      -0.12035418       0.77975052      -1.13217004       0.72738447      -0.36947444
O      -41.55277986      21.99141140     -47.31479708       0.26263732       0.11276326       0.09281862       1.21941552      -0.08754412       0.03672241
O      -43.35375608      22.19993929     -19.37118108      -0.77930802      -0.20737488      -1.17477779      -1.74725808      -1.01568554      -1.18532547
O      -44.06640471      12.65165975     -29.99995724      -0.19881311       0.12976932       0.98871343      -0.87719736      -0.47967838      -0.92002357
O      -45.11308569      10.96277114     -30.98788067      -0.59719745       1.81421260      -0.62782293       1.97253958       2.75945949       1.12791439
H      -42.42647238      13.04070099     -29.81140395       0.30559494      -0.17796941       0.26283952       0.03833317       0.87447629       0.04810963
H      -40.82653459      13.06489625     -29.10731480      -0.05300923       0.01487835       0.13045901       0.53319607      -0.54401223      -0.05099072
H      -39.81882204      22.81388555     -19.10733102      -0.22897442      -0.11154692      -0.03326232       0.28540128       0.51644700       0.43678466
H      -38.88117376      24.39409617     -18.75857420      -0.39073982       0.25384035       0.12693397      -0.77851994      -1.90013567       0.12147233
H      -44.82022088       9.41378964     -30.95848100       0.03482380       0.03159194      -0.11181334       0.14170097      -0.67054350      -0.05033659
H      -44.28905200       7.70822070     -59.57781953      -0.18722485       0.05920071      -0.22909452       0.15472595       1.07763696       0.09412960
C      -32.99730383      -0.59272443      10.10231284       0.13025866       0.52996620      -0.34262977       0.49680424      -0.83598359      -1.39884649
C      -31.69515687      -0.38242766       9.42586528       1.68701683      -0.28941988       0.36074121      -1.79712229       1.04835309       2.34226472
C      -34.06500335      -0.81118418       9.16239316       0.90598489       0.17153914      -1.93161747      -0.58177372       0.77220809       1.17182395
N      -33.10615387      -0.74719781      11.43135153       0.32061160      -1.15038861      -1.18166418      -0.47183136       0.11588375      -2.34996475
C      -31.52529783      -0.26933983       8.04727758       0.64579878       0.64397238       0.47180303       2.10153274       1.14667776      -0.10425325
N      -30.57089024      -0.11563307      10.30626029      -0.46706936       0.93410926       0.19998364      -0.68333909      -3.28244316       0.45111583
C      -32.69587769      -0.20112546       7.26734834       0.44820643      -1.58514655       0.07928046      -0.06745228      -0.13921553      -0.45071807
N      -30.24928051      -0.08739313       7.54591371      -1.89960493       0.06989015       1.81449448      -1.97538497      -0.15802629      -0.89972935
C      -33.94748650      -0.51376945       7.78752794      -0.42595498       0.02367858       0.82840776      -0.66188495      -1.93866993       0.78643671
N      -32.63419509       0.19873009       5.93739972       0.01108585       1.08845394       0.03677627       1.84673250       2.52492015      -4.64146467
N      -34.97227858      -0.80163815       6.98524639       0.34736630      -0.63269463       0.64220050      -0.04576321       0.27908673       1.12977014
N      -35.42607596      -1.01319188       9.68007849      -0.72436837      -0.54031861       0.58395448       4.73047744       0.21250261       2.14414599
O      -30.74954844       0.32477564      11.45414534      -0.06577618       1.48040700      -1.02660515       0.87397775       0.21596084      -1.51104931
O      -29.54857033      -0.70914477       9.95327354       0.12996518      -0.20815505       0.47012421       0.65704008       1.30752619       0.72955162
O      -31.64315846       0.91654308       5.58667983      -0.34126487       0.33897817       0.20491998      -0.72430066      -1.22940855       1.23900728
O      -33.46394016      -0.00626492       5.02638020       1.05661379      -0.17245613      -1.15169400       0.10516820      -0.54282140       2.21370736
O      -35.44863683      -1.26762150      10.90133317       0.22284723       0.11817665       0.74497322      -1.86765678      -0.31529687      -0.97624527
O      -36.35545626      -0.84928373       8.97647533       0.98143543       0.49199353       0.42949276      -3.20957305      -0.15565267      -0.04924723
H      -34.03993253      -1.00384371      11.77884775      -0.21370021       0.29420773       0.20050093       1.07927005       0.32300085       0.00769478
H      -32.23632852      -0.54402247      11.84825762      -0.15186081      -0.12743350       0.15200223       0.18871109       0.13489824       1.55863295
H      -30.15126774       0.13612842       6.55770032      -0.25121935      -0.05905382       0.12550348      -0.31282153      -0.06167875       0.59479627
H      -29.50792213      -0.48981675       8.06278418       0.45292629       0.20832638       0.08609288       0.49016503      -0.08823444       0.35831666
H      -35.88103796      -0.77618148       7.39286885       0.32512440       0.19117945      -0.07903428      -0.45802129      -0.20397453       0.07214618
H      -34.87935312      -0.45578364       6.09702831       0.57051485       0.10456524      -0.22190364       0.18162880       0.55324991      -2.76354944
C      -20.72574053       3.15332298      -1.92285644      -1.75189500      -0.06651846       0.96756675      -2.65939456       0.97724561       1.02822049
C      -21.60217126       4.15013725      -2.50476796      -0.67234521      -0.44745323       0.53592041       0.83964209      -2.36584663       0.83767330
C      -21.27500148       2.27605089      -0.91231078       1.69090227       1.77322897      -1.01120946       0.80731670       0.57120648       0.36132333
N      -19.47051435       3.06047016      -2.18559345      -1.35577456       1.66386815       1.87026054       1.71187570      -2.76099663       0.74741018
C      -23.00948911      19.64319377       8.00187386      -0.60707062      -1.08255229       0.21912186       2.25766236       0.07086701      -0.79693479
N      -21.00991486       5.00386758      -3.48850030      -0.12627735      -0.84462998      -0.41804914       0.87124606       2.16098681       0.47612667
C      -23.49383080      18.78771956       9.03904686       0.64114179       0.50005742      -1.73179777      -0.96920323       1.49679691      -0.41573313
N      -23.67444610      20.29134544       7.06443442       0.78803190       0.07398817      -0.18194961      -5.09993520      -1.13260607       2.69229361
C      -22.59563791       2.42068547      -0.41630185       0.31433383      -0.20997585       1.41294291      -0.99328585      -0.26112123      -1.11516558
N      -24.95762073      18.78910522       9.22837043       0.39889759      -1.22171986       0.85762170       2.69440236      -2.30584519       1.15902184
N      -23.01462795       1.79966718       0.67163022      -0.29051526       1.59998164      -0.55844999      -0.12899972      -0.36154696       1.38416855
N      -20.38025153       1.29103875      -0.28513259      -0.06825523       1.12722776      -0.50161365      -3.35184151       0.55913204       1.55715554
O      -19.94053147       5.51148513      -3.19096000      -0.24885905       1.45429860       1.50168769       1.03780315      -0.75666321       0.81989650
O      -21.52988095       5.41388663      -4.51896500      -0.14452699       0.23468438       0.52382613      -1.72044010      -0.98430973      -0.67805560
O      -25.65140661      19.67485126     -20.19590929       0.50135031       0.86498168      -0.89361071      -0.69714812       0.54274946      -0.59962194
O      -25.36692174      17.80336358       9.84444908      -0.42644175       1.17694716      -0.70735531      -0.84686588       1.10091448      -0.10190201
O      -19.67149131       0.63863553      -0.98605441       0.56311624       1.33820349       0.09864533       2.01182471      -0.93792515      -1.35489327
O      -20.54248665       1.01407801       0.92222979      -1.44081434      -0.77429579       1.36441618       0.62212143       0.50699526      -0.66157621
H      -19.01012589       2.17956863      -1.93875509      -0.28300280      -0.38012844      -0.32075938       0.03875822       0.86366505      -0.20979765
H      -18.95801581       3.64873030      -2.74734004       0.22208799       0.22231967       0.05911515       0.91600009       1.61234269      -1.35508472
H      -24.69676956      20.36362426       7.28016402       0.04694485      -0.06413712       0.05265544       1.43852172       0.14608009      -0.78051219
H      -23.22217556      20.76531887       6.35449802       0.13406457      -0.03673250      -0.01087905       0.92322593       1.08377239      -1.54217858
H      -22.27438238       1.34177000       1.22298917       0.06108676       0.35491704      -0.22079836      -0.96104287       0.33856930      -0.41332764
H      -24.00628880       1.74569518     -28.03035878       0.21683230      -0.19109484       0.04634918       1.19146624       0.14285931      -0.77976554
C       -4.33169921      18.32169895      10.63951402       0.26293462       0.47662319       0.39988884       2.63889748       0.72371018       2.44985724
C       -5.58298118      18.60768315      10.22338542       0.31693775      -0.27253310      -0.15784799      -3.46468696       1.51207706      -2.62744669
C       -4.09965076      17.00378836      11.07424270      -0.35247543       0.61227852       0.49913291       2.17428356      -1.05548838       1.23927157
N       -3.43666989      19.30687529      10.93454193      -0.74829101      -0.22518413      -0.27466814      -2.32185514       0.96447908      -2.02200898
C       -6.66629285      17.60247543      10.16550894      -0.39220917       0.17212024       0.01276280      -0.71428996      -0.41680679      -0.64784947
N       -5.90987585      19.91859011       9.58627614      -0.31529615      -1.00176199      -0.65532784      -4.31988106      -1.30015256       1.17726154
C       -6.24931285      16.23592370      10.11526412       0.74955237       1.11634573       0.16157778       2.66636784      -0.40010349       1.44772663
N       -7.97603751      17.86969114      10.12598147      -1.12712038      -1.05085343      -0.46899912       0.46110352       1.85078563      -0.70564106
C       -4.89326210      15.91437399      10.61802375       0.92761761      -0.25356387      -0.43945617      -2.34703569       2.51856111       0.48988518
N       -7.11813691      15.13740465       9.94707128       0.22102404      -0.40469217       0.69376762      -4.47268297       2.60786988      -2.41921913
N       -4.61422400      14.67395447      10.78192806       1.16349145      -1.60509891       0.38986536       3.23092675      -1.93616352       1.15666793
N       -2.98661115      16.66001571      12.13630717      -1.75177955      -0.24082969       0.04078656      -1.64842991      -1.36071073      -2.08609208
O       -5.20680384      20.79552371       9.18957221      -0.24856936      -0.05531136      -0.47113793       2.11693487      -0.40505777       0.42320792
O       -7.18485757      20.08876847       9.48867753       0.95115732       0.13341839       0.90364992       2.27792920       0.46578807      -0.21208825
O       -6.99837465      13.97956487      10.26707611       1.43295861      -0.43187773      -0.79049836       0.96254026      -0.72623892       0.48750505
O       -8.21644132      15.48051593       9.34917188       1.23825106      -0.64737485       0.84480892       1.65938293      -1.09788323       0.99463908
O       -2.09346354      17.39339165      12.49773078       1.18971707      -1.16300067       0.91685210      -0.96280382       0.42753603      -0.32291264
O       -3.11036847      15.49418175      12.54090115       0.33812904       0.96186930       0.91696103       0.88856196       1.21600557       0.87038992
H       -2.62241005      19.08291137      11.40476865       0.10845200       0.15788133      -0.06224785       1.71150189      -0.49973233       0.81807831
H       -3.58916988      20.25953759      10.56337657       0.19147458      -0.14841794       0.29177490       0.22377933      -1.13639750       0.44075880
H       -8.60451105      17.09357117       9.90978954       0.07334427      -0.15168587      -0.18297630       0.43132288       0.33323842       0.11001597
H       -8.22909605      18.86033402       9.83718335      -0.06674632       0.05087306       0.50006018       0.28421743      -1.94881496       0.87245728
H       -3.78430362      14.44053327      11.35802046      -0.09406413      -0.07230714       0.05311131      -1.00839037       0.34720825      -0.83444946
H       -5.31842985      13.99804646      10.68632495       0.04344575      -0.20585381      -0.42639628      -0.76833537      -0.95257602      -0.38121830
C      -29.56248475      34.81294086      45.02887918       0.52449522       0.24674556       0.93189450      -1.30689329      -0.12630103      -0.03648199
C      -30.41305223      33.87619085      45.78167314      -0.51505554      -1.19954442      -0.37450481       1.92940862       2.05421702       1.50194405
C      -29.51659463      34.70088428      43.63141526       0.29391346      -0.59115392      -0.65703732       1.65376217       0.16424896      -0.46931007
N      -29.08042694      35.88175173      45.65576271       0.25271060      -0.72411861       0.06104573       0.94576201       0.32288010       2.75619558
C      -31.25062398      33.04494510      45.12969610      -1.65033115      -0.82421468       0.12913293      -1.18961982      -2.62773482       0.60769174
N      -30.21570519      33.64153321      47.30644429       0.69676807      -1.56038974      -0.30490219       1.20584269       1.11722109      -2.95319927
C      -31.15048500      32.96527237      43.72079193      -0.19925811       0.79444686       0.90859839      -0.96856132      -2.14650861      -0.82923006
N      -32.10911076      32.25716544      45.84560101       0.61247328      -0.20669870       1.08600678       0.13572295       1.52977584      -1.68413348
C      -30.33051245      33.74292355      42.92304057      -0.51729880      -0.78017480      -0.60389946       0.31029813       1.71070895      -2.17821775
N      -31.67203565      31.79589835      43.03610908       0.76694613       1.55904792       0.32949056      -1.06171296      -1.90959848      -0.02984234
N      -30.37530027      33.81016329      41.53965247       0.34852751       0.55928589       0.32158959       0.46014878       0.39104708       2.62071095
N      -28.39269176      35.43872221      42.91387800      -0.18119001       0.51732654       0.40120034      -0.42072214       0.52776579      -0.26656032
O      -30.53139755      32.60244959      47.76734818       0.04354525      -1.15615621       1.20050930      -0.57891186      -2.11630004       1.02713166
O      -29.59798786      34.46685402      47.93834362      -0.73212971       0.32602012      -1.93290132       0.61845389       1.48168988       0.34292813
O      -31.44329002      31.61021857      12.85612076       0.16300794       0.29828403      -0.34536648       0.03617525       0.53154220       0.30585726
O      -32.31229335      30.91877460      43.64089907      -0.12860677       2.01554803      -0.78753876       0.47662386       1.20431700       0.11232382
O      -28.33954205      35.27178888      41.70366872       0.99522630       2.38027985       0.76390576       0.17053623      -0.47724816      -0.49188911
O      -27.56458190      36.20207996      43.40084629       0.78490653      -0.75575266      -1.04541479      -1.01165346      -0.92506179       1.61744278
H      -28.21863300      36.38252376      45.44391440      -0.17158887       0.46745680      -0.05063170      -0.60070967      -0.48811538      -0.85695568
H      -29.21096553      35.75995147      46.67503904       0.18220163      -0.25877954       0.00376693       0.26369860       0.39128499      -0.62463194
H      -32.37157670      31.39065969      45.50009276       0.17417899       0.36585938       0.03994941      -0.68427130      -1.38926434      -1.26631192
H      -32.14994485      32.28997977      46.81680140      -0.31194426      -0.12720309      -0.10194627       0.33467727       0.49519972       1.44555884
H      -29.74537397      34.58916582      41.33742396      -0.02693144      -0.15241711      -0.13266845      -0.35345823      -0.68555548      -1.44515714
H      -30.82297611      33.10854417      11.96766842       0.42283261      -0.02014375       0.01598687       0.40374561       0.60515751       0.75383997
C      -64.48719763      19.85774845       3.67585701      -0.19233256      -1.60906646       0.91424780       0.85560847       1.33948396      -0.90276284
C      -65.05532090      20.66220628       4.76794057       0.56359161       1.80000019       0.04845644       0.81881854      -2.85517712      -2.34902018
C      -65.36463345      19.31271818       2.68595720      -0.38610834      -0.77766624       0.35606556      -1.31791986       0.95631590       1.55080860
N      -63.15162493      19.86040235       3.42301321       1.23323281       0.19437747       0.10152876      -1.29155221      -0.62760742      -0.41852990
C      -66.44567192      20.83881276       4.87767091      -0.20065883      -1.71262457      -0.73936579      -1.38418570      -0.43093170       0.99786169
N      -64.12410563      20.90659035       5.77876516       0.84933317      -1.70160820      -0.44743567       0.28828497       1.86606701       0.69214119
C      -67.30769477      20.22756483       3.87820278      -1.15589035      -0.78826480       0.09365031      -0.34914332       0.14982876      -0.15847789
N      -66.93635515      21.44756168       5.97065394      -0.06137891      -1.03248093      -0.44195731      -0.87135351      -0.57788042      -1.71384361
C      -66.77519232      19.52651861       2.76758769      -0.48724005       0.74476432      -0.86729131       0.90775305      -0.56575763      -0.98937485
N      -68.75568386      20.36728739       3.89909188      -0.20801560       0.41389865       0.76503020       0.13621076       2.83174049       0.32462013
N      -67.52284204      19.12491657       1.70237123       0.35226164       0.54219794      -0.55627418      -0.30665826       0.33099770      -0.52140135
N      -65.01161146      18.46726739       1.63741444       0.29186034       1.04374427      -0.10650661       5.13308628      -0.91270863      -0.09197341
O      -63.01192212      20.45280906       5.77338126      -0.69543272      -0.37272191       1.31862546       0.76224368      -1.29292850      -0.01910314
O      -64.42048468      21.72626930       6.64175477       0.83383450      -0.14455479      -0.97028724      -1.22559851       0.66837588       1.10202534
O      -69.37895015      20.01497801       2.89758163       2.04557996       0.25345504      -1.03366810      -1.15958023       0.05551594       1.25341143
O      -69.30747145      21.05885839       4.78182129      -0.91773188       1.29181459      -1.52455933       1.16780524      -1.71931391      -0.66014609
O      -63.75758199      18.54954029       1.21280889      -0.17874131      -0.09927307       1.02648461      -4.22460920      -0.39759842       0.45918357
O      -65.77841343      17.57896094       1.31178258      -0.26173340      -0.01533079      -0.07539385       1.34014848       0.10930480      -0.86051313
H      -62.94370677      19.42788596       2.54913841       0.30722883       0.52814813       0.12137453       0.29870394      -0.45135868      -0.68915168
H      -62.43149127      19.85393506       4.11143808      -0.13222248       0.11691268       0.10412331      -0.28844707       0.30074212       0.54463141
H      -67.93550122      21.66564898       6.01791322      -0.06519045      -0.05544146       0.56075800       0.69419457      -0.19757516       0.01865574