1296
Lattice="-37.18595734296953 11.004910281674984 55.465376870911044 0.0 18.621346362687213 0.7639820609875179 0.0 0.0 -28.29102337104906" Properties=species:S:1:pos:R:3:momenta:R:3:forces:R:3 energy=-1487792.8952354311 free_energy=-1487792.8952354311 stress="0.0018379710257266225 -0.002186023584805009 -0.0010663566414631186 -0.002186023584805009 0.0013643814109915403 5.328538428659983e-05 -0.0010663566414631186 5.328538428659983e-05 0.003099701287195512" pbc="T T T"
C      -26.75924926      21.32952700      37.67037671       0.84542364       1.12930786       0.42316777      -0.15483061       1.35670677      -0.55336512
C      -27.87795288      21.18508285      38.45626622       1.10584504      -0.13015153       0.88561664      -1.03163132       1.51478422      -1.26112992
C      -26.88069988      22.24070495      36.56311723       0.26471322       0.46342781       0.47990093      -0.79519555       1.48129394      -0.62433679
N      -25.62519501      20.75659076      37.98908412       1.64525627      -1.01568783      -1.06839523       1.41667361      -1.10627483       0.44153629
C      -29.00213215      40.66632212      39.02836008      -0.39577219      -1.02377190      -0.22075218      -0.61766715      -2.50715873       1.92237828
N      -27.79752789      20.29776477      39.56905182       0.79374253      -0.68582308      -0.86838609      -0.48280030       0.32544864      -0.39838807
C      -28.94803366      41.75251080      38.15856459      -0.41719777      -0.50533862      -0.72968831      -0.99714942       2.24506347      -1.51043206
N      -30.08323687      40.30974168      39.74845684       0.98814671      -0.15789909      -0.80684411       1.84826010      -0.55331124      -0.29178246
C      -27.90460953      23.25675206      36.46523846       0.98557047       0.34453566       0.08394382       1.51897365      -0.82888851      -0.27797664
N      -30.01440475      42.75284914      38.09169276       0.34583384      -0.00467709       0.12733266       0.68764897      -0.89987429       0.62105672
N      -27.82274482      24.19984254      35.52724562       0.94101213      -1.40279728      -0.45539407      -5.51279208       1.60363308       2.24686316
N      -25.80851693      22.42806360      35.67981066       0.52368196       0.17890240       0.00679415       1.17440544      -1.39478876       1.65397851
O      -28.54848964      19.34559256      39.60404835      -0.71093457      -0.84272367      -0.56723279      -0.25510105      -0.41718514       0.47809745
O      -26.96983661      20.59700228      40.40278576       0.37857085       0.53494307       0.94766684       0.61529780      -0.56433567       0.90129408
O      -29.99108870      43.74321615       9.06115201      -1.73400670       0.81367959      -0.92615880       0.16223174      -0.82291973       0.38397142
O      -30.92489301      42.54154161      38.87962379       0.58606535      -0.43338773       0.89192002      -0.97255229       0.47540781       0.07935965
O      -25.07091422      21.43487169      35.57293594      -0.63070383      -0.09246490      -0.33632908       0.44427809       0.72401505      -0.94702185
O      -25.56288142      23.52345551      35.19578063       1.69912678      -0.05090987      -0.33872421       1.12223839      -0.60210333      -0.98208121
H      -24.87800771      20.90531120      37.29317216       0.10138666      -0.56209455       0.05462795      -0.30062004      -0.48738445       1.00204347
H      -25.53984663      20.28750433      38.91080098       0.17376491      -0.26072850      -0.26885336       0.28989978       0.66874100      -1.51651754
H      -30.85417802      40.89282212      39.64857957      -0.20418597      -0.16765236      -0.20918390      -1.67864011       0.94940730       0.32381600
H      -30.01799467      39.46445014      40.30135993       0.20101678       0.19654007       0.06186195      -0.53148510       0.42217191      -0.20190206
H      -27.01618069      24.22441251      35.00699831       0.12377802      -0.44563977       0.02286533       1.79911625       0.52849800      -1.44263986
H      -28.63595571      24.93813731       7.25622967      -0.08870632      -0.19170023       0.10072083       2.22188063      -2.11892729      -0.03346746
C      -38.96785952      18.69489717      29.74890015      -1.98168844       1.57059212       0.49557109       3.91205714       1.71064377      -2.27782479
C      -39.91513013      17.75581811      30.00344344       0.27529611      -0.19494116      -1.37029774      -2.05379738      -2.12044697       1.16406190
C      -39.20399447      19.48765207      28.56505456      -0.08738628      -0.07153087      -0.45023984      -2.17499948       0.92988856      -2.46786477
N      -37.77233821      18.68010019      30.37082732      -1.37972896      -0.96324912       0.19113138      -0.18594321      -0.72201342       1.31127434
C      -41.17932475      17.67854639      29.39790503       0.02948339       0.21476633      -0.60137315      -2.26176835       1.10341808      -1.42765621
N      -39.73088668      16.93666450      31.14299704       0.94511191       1.62058991       0.68515665      -1.31284290      -0.58217486       3.22927909
C      -41.49583210      18.49154426      28.22948646      -0.37376268       0.03113763      -0.51971872       3.24948888      -0.28625422       0.76636252
N      -42.20507730      16.96796091      29.82791559      -0.31409327       1.51340746       1.39060084       2.90511334      -1.66298247       4.20515775
C      -40.44459378      19.39558029      27.75742464       0.22508478      -0.52907263       0.62416991       0.02597503       0.11560213      -0.43961912
N      -42.67724427      18.36533813      27.51469036      -0.05507731       0.47590351      -0.46429722      -1.49134474       1.51907767       0.51599473
N      -40.61523401      20.13412713      26.63372839      -0.25785492       1.05807618      -1.60810747       1.59199996      -0.96797884       3.10888273
N      -38.29032884      20.50469487      28.10220230      -1.99080434       1.21101017      -1.15662834       1.05407122       0.32544136       1.78380769
O      -40.71708477      16.63728753      31.87069223       0.65906858       0.00499305       0.05313656       0.99875038       0.13680423      -1.42823491
O      -38.62199361      16.60286057      31.53670421      -1.27490562       0.84348233      -1.26471445       0.20193529      -0.07735758      -0.77624939
O      -43.68347496      17.76391167      27.90846859       1.21622611      -0.62777748      -0.37284474       0.26938153      -1.16856952       0.70667044
O      -42.79793597      19.07452310      26.53907810      -0.50446810       2.10461813      -1.19958730      -0.24275601       0.12325973      -1.86992026
O      -37.46868492      20.81759192      28.96007000       0.82031687       0.14201621       0.06597086       0.58802435       0.24664694       0.24307345
O      -38.26213334      21.09067295      27.01126841       2.04477030       0.55509218      -1.10106765      -0.90894337      -1.08017692       0.08417264
H      -37.08568428      19.47574669      30.31013507       0.11736870      -0.06144620       0.00768446      -1.45319550      -1.27782056      -0.37069752
H      -37.60210730      17.84572470      31.04831820      -0.20306724       0.01819954       0.04522644      -0.28776833       2.57426336      -1.74384861
H      -43.00122022      16.91571340      29.31921243      -0.15928401      -0.30701519       0.31127512      -2.84074392       0.14749259      -2.11458570
H      -42.18972541      16.50623003      30.76658268      -0.21275515       0.30379917      -0.24202407       0.43578886       0.81875704      -1.51038641
H      -39.80843127      20.69896414      26.42251523       0.01938584       0.22097405      -0.11113863      -0.15139781       0.25980510      -0.56463188
H      -41.51521866      20.07056553      26.21636023      -0.24032096       0.15163139       0.07201680      -0.42197463       0.05515541      -0.62852603
C      -34.49032431       2.60514207      13.79826495      -0.59066084      -1.07939411      -0.39799112       0.58528773       2.28238224       1.34197541
C      -33.26799902       3.32050137      13.40130973      -1.19944727      -0.69587047       0.95435094      -0.32796373      -0.46449142      -1.22535807
C      -35.72789827       3.20656314      13.45629213       0.96106687      -0.20507959       0.99247648      -1.59635928       0.52183863      -2.74543118
N      -34.40498432       1.68701472      14.72825284       0.24651712       0.05972357       2.02752487       1.25961972      -1.59432367       0.24221475
C      -33.35620219      23.09937240      13.29923851      -1.13888012       1.70087464       0.22077932       0.54240116       0.00871278       0.04821169
N      -31.94249463       2.77360764      13.66768039      -0.47551889      -0.62228688      -0.94711771      -2.83371188       0.04969440       1.06982803
C      -34.64224370      23.65872912      12.93225568       0.59234860       0.72213949       0.48644224      -0.27269623      -1.02324656      -0.06761235
N      -32.27604483      23.67734070      12.80340294       0.22355117      -1.33535179      -0.33389907      -2.15910784       2.18904524      -1.16011939
C      -35.85938572       4.28225820      12.39722040       0.93517911      -1.09525022      -0.49173730       0.15455594      -0.39685263       1.37205231
N      -34.67143403      24.80638819      12.09188898      -0.79306317       0.33370608      -0.68793474      -1.04550892       0.72976093      -0.40356730
N      -37.03281799       4.57598816      11.82161571      -1.26922779       0.95845903      -1.14172950       1.80829715      -1.23529298       1.41430436
N      -36.93204865       2.50197460      13.86806017      -0.37678321       0.90195716      -0.31689061       0.63758647      -0.03043117       0.90027561
O      -30.98990417       3.39775890      13.31014838       0.17399238      -0.59257576      -0.54762814       2.27863252       0.52914928      -0.59222293
O      -31.82652259       1.75111156      14.34637763      -0.08228375       0.09288934      -1.20734259      -0.12310874      -0.49093888      -0.15365024
O      -35.74134478      25.17226198     -16.67142900      -1.60977875      -2.75274892       0.65628658      -0.68287401      -0.40879617       0.22240845
O      -33.68709750      25.50086396      11.85910054       0.27927078      -1.27729111      -1.52964363       1.02047572      -0.12139715       0.30968715
O      -36.83646273       1.70230690      14.80249488       1.21205763      -2.14086004       1.11501501       0.01196356      -0.23363877       0.32491902
O      -38.03056566       2.69830411      13.39741685       0.19795628      -0.24704847       0.16749062      -0.39426439       0.89796154      -1.34734414
H      -35.24952957       1.31244963      15.19761750       0.54879767      -0.21368760      -0.06597951       0.97975835       0.40883983      -0.81753276
H      -33.42634045       1.34636851      14.82487800      -0.33160895       0.16308046      -0.06766670      -1.05418111       0.11884203       0.41483276
H      -32.40988471      24.58432196      12.26044913      -0.18012009      -0.29546161       0.10248139       0.04873629      -1.60165972       0.83784266
H      -31.40998733      23.40296107      13.12670640       0.19007254       0.21778790      -0.33114509       1.82923337      -0.72582510       0.47683221
H      -37.75146054       3.88681826      11.92177201       0.40261651      -0.10969408       0.06966033      -0.45194481       0.16995856       0.20384417
H      -37.10366166       5.36557028     -17.06938579      -0.00052312      -0.10846443      -0.37946045       0.03804345       0.44565613      -0.53352700
C      -20.69193339      -2.21727385      33.99312652       0.35985238      -0.72178980       1.11182869       0.22676336      -0.92171793      -0.47411938
C      -21.49943712      -1.14409108      34.42353217       0.08792251      -0.30232736      -0.17977089      -0.18883626       1.18784259      -0.36588048
C      -21.31462959      -3.53098308      34.00946131      -0.23344834       0.40696980      -0.20239865       2.03573601       1.85927224      -0.11027788
N      -19.39603081      -2.09020723      33.51286211      -0.11310558       0.31477827       0.10860331      -3.76993209      -3.92934837       0.48411247
C      -22.78905076      -1.33115835      34.94503277       0.13720761       0.00232751      -0.20313173      -1.36655299      -1.65290728       0.56480244
N      -21.01354528       0.23092159      34.35461741      -0.63087792       1.66854261       0.95729174       2.04549433       0.62786666      -1.08654825
C      -23.38975413      -2.67004872      34.90959797       0.31971316      -2.09346455      -0.89569691       1.99560877       3.07367285       0.16316084
N      -23.44116674      -0.32481727      35.52433550       2.18663771      -1.00661898       0.13840042      -2.15103249       0.05279551       0.75066214
C      -22.63884233      -3.73942692      34.35891797      -0.83349198       0.89135209      -0.27703315      -1.31521327      -0.66633428       1.02341458
N      -24.54770001      -2.84996734      35.64833120      -0.07026403      -1.10471777       0.53705415      -2.40062788      -3.13893379      -0.19146481
N      -23.14765377      -4.96288076      34.36833078      -0.48088229      -0.35115075       0.91852426      -2.28652654      -1.39675400       0.31070109
N      -20.45423552      -4.70172995      33.89132410       0.23698036       1.18740264      -0.02453861       1.35385751       2.86172633       2.07315834
O      -21.68157731       1.24916243      34.34722614      -1.23265008       0.71991444       0.28330627      -1.73996058      -0.57369033       0.45844329
O      -19.79936537       0.38300885      34.18463178       0.32265420      -0.86195696       0.45297939       0.43059539      -0.95755103       0.35483646
O      -25.25143312      -3.84993946      35.42724880       0.28845342       0.06926679      -0.56953416       0.53666443      -0.38697500      -0.85390758
O      -24.96117867      -2.12804064      36.53099009       0.87134576      -0.81064161      -0.33719792       0.51031415       2.38299426       1.11079250
O      -20.87512059      -5.63251753      33.31705572      -0.07812358      -2.05176805       0.41893892      -1.07084746      -3.26110173      -2.01679144
O      -19.34156404      -4.70430834      34.45155395      -1.88059145       1.49806538      -0.04357671      -0.74711674       0.42582247      -0.41896628
H      -18.99031353      -3.00617503      33.72427516       0.20063720      -0.06307315       0.21035339       0.83678426       0.78791504      -0.49304503
H      -18.96968101      -1.32329421      33.86409121       0.41706837       0.15079602       0.48369443       1.97416725       2.78265345       0.90128581
H      -24.38965906      -0.47238014      35.96331699       0.20530790      -0.07651098       0.05903545       1.79723312      -0.18002005      -1.05046130
H      -23.34027433       0.56835604      35.10602528       0.14300859      -0.10383975      -0.35020587       0.54587281       0.78415090      -0.14712163
H      -22.72728487      -5.61575534      33.74052570      -0.01197551      -0.14173314       0.22559832       0.05091981      -0.41262434       0.25305872
H      -24.11879634      -5.18117535      34.76781536      -0.47658006      -0.07835178       0.10295377       2.11266363       0.99677128      -0.96884867
C      -20.35082505      -2.50144139      11.54363881       0.67456544       0.00934605      -0.61123204      -2.38802908      -2.56791035      -0.40007555
C      -21.40990808      -3.57654776      11.45030468      -1.46326657       2.74084222      -0.44578876       2.74735386       1.93503511       0.76199192
C      -20.18151499      -1.86472903      12.78417585       0.30490617       1.34807831       1.26787769       1.87586760       0.54097295      -2.12810110
N      -19.63282898      -2.28200212      10.43853031      -1.54999293      -0.58922766      -0.59446171       1.01361051       1.73367669       0.36649408
C      -22.12458605      14.70320292      13.42003891      -0.32794911      -0.02237155       0.88291785       0.65260962       1.01261943      -1.18872453
N      -21.62353425      -4.21499912      10.16666781      -0.58616055      -0.64389631      -0.10045968      -1.59921520       1.26121384       1.77754935
C      -21.82044953      15.48597125      14.63818245      -0.20580757      -0.24357561       0.84293815      -0.38520980      -1.03966668       0.32238885
N      -23.07081735      13.80850984      13.17724777       0.63180085       0.60495361       1.69451502      -1.26873076      -1.24051855       2.61453089
C      -20.79255957      -2.14308169      13.97813363      -0.00919697      -0.33928970      -0.41214538      -0.66158377      -0.65519566      -0.46086875
N      -22.65083755      15.18662002      15.80755783       0.19439434       0.91843077       0.67255914      -1.06815299      -0.04169478      -4.83825391
N      -20.39507034      -1.48987280      15.11758266       0.68624547      -1.50990522      -1.18464138      -0.74787858      -1.21588334      -0.50497688
N      -18.83312855      -1.13900641      12.90102669      -1.21783827      -1.28002766      -1.19528745      -4.65623138      -2.02932198       0.45982210
O      -22.34408699      -5.18560720      10.05095957       0.62182548      -0.01169794      -1.84662819      -0.13821288      -1.44177432       0.16559777
O      -21.26008592      -3.63149121       9.16958176      -1.47517456      -1.08854115       0.46258509       1.16904992       0.34256495      -1.77164950
O      -23.61809425      14.46916195     -12.79984019      -0.26269467      -0.50055440      -0.30145459       0.54111378       0.42684857       2.38973374
O      -22.50166492      15.81913837      16.80623797      -0.22974550      -0.25781088       0.59652826       0.00715412       0.00080779       2.23274241
O      -17.91564380      -1.88541424      12.91409641      -0.44149319       0.30030268      -0.25339927       2.75082824      -0.05362967      -0.19644448
O      -18.93498383       0.02117741      13.14901145       1.45487244       0.02525753       0.55650094       1.41819980       2.22061157       0.05428131
H      -19.19806119      -1.35847371      10.26225112       0.42908847      -0.08613545      -0.02164816      -0.25587335      -1.30395183       0.38675215
H      -19.88086860      -2.89434461       9.66609002       0.04364367      -0.07642188       0.15154601       0.09469075       0.86760088      -0.03713638
H      -23.69804310      13.46946526      13.92111986      -0.01529199      -0.23301500       0.28739057       0.94813662       0.76171192      -0.66557318
H      -23.05182095      13.32101007      12.29475548      -0.22880282      -0.12436794       0.02441941      -0.06058402       0.10419198      -0.16648131
H      -19.47186012      -1.12449108      15.10496573       0.12744861       0.15684920       0.77491065       0.51034708       0.45631405      -0.15797480
H      -20.53022849      -2.10721511     -12.40529325      -0.06219120       0.04598412      -0.01968744      -0.32782569       0.08673887       1.01619673
C       -7.68091592      15.26224498      -1.42319992      -2.34827740       1.43221298      -1.64870512       0.36375218       1.09613097       0.46260005
C       -8.65755993      14.64355106      -2.23839425       0.64959149      -0.60406995      -0.36420091       0.37067115      -0.80124628      -0.71510120
C       -6.46854416      15.77190430      -2.08743167      -1.74159868      -1.16252248       0.34371607       0.07899547      -1.24463227       0.16480715
N       -7.88367176      15.49086072      -0.10525559      -0.14954274       0.66242204      -0.86289255      -0.06993548      -0.69685245      -0.28085558
C       -8.38115999      14.45970516      -3.66754484      -1.01260841       0.69701764       0.86039441       0.37324380       1.74578129       1.34292880
N       -9.84830055      14.04480053      -1.60301068       0.48172445      -1.48491601       0.55513326      -0.92303926      -0.47919713      -2.46707268
C       -7.16182813      14.86573772      -4.24966688      -0.37565644       1.58213699      -0.00383304       1.20781860      -0.23513418       0.36896145
N       -9.33284441      14.11003340      -4.46111826       0.19237301       0.05095949      -1.27101361      -1.36471045      -1.38719906       0.10602265
C       -6.07636238      15.43890854      -3.43545105       0.59203037      -0.83514278      -1.14184337      -2.78479131       0.49015524       0.05652998
N       -7.01718938      14.73211423      -5.69135002       0.39777200       0.77105334      -1.79402582      -0.35411908       0.69642813       0.86248749
N       -4.98438534      15.88264284      -3.98384643      -1.81911173       0.43550626       0.54008916       2.80783911       1.44916364       1.38001258
N       -5.53396820      16.47366402      -1.28192244       0.12269153       0.59648587      -1.13880611      -1.38014633       0.39947036       0.05356421
O      -10.86968817      13.69030957      -2.23924323      -2.46388015      -0.61951046      -0.37849035       2.05394780       0.71495547      -0.20432940
O       -9.80397799      13.84256938      -0.42541618       0.06710818      -1.13470445      -0.92069922       0.34631901      -0.06970819       2.15625645
O       -7.92515047      14.51927142      -6.46770049       1.09714054       0.55882988       0.94327853      -1.74487064      -0.64913452       0.13301814
O       -5.93420521      14.93774233      -6.15815882       0.31067653       0.36906522      -0.85385468       3.21629907       0.43390736      -0.47102539
O       -6.00762371      17.03545157      -0.28745280      -0.62224369      -0.30819016       1.03452963       1.44861734       0.36780830      -0.09751999
O       -4.35820119      16.59004373      -1.61326459      -0.77707852      -0.34275074       0.60731689       0.30895681       0.16229794       0.37653370
H       -7.28424008      16.19365508       0.36843009      -0.12285917      -0.23877279       0.28340327      -0.72039623      -1.07010121      -0.39011611
H       -8.54442506      14.83295507       0.34035174      -0.36855094      -0.33505029       0.24626902       0.44038884       0.97598145      -0.29885446
H       -9.08703685      13.82387554      -5.38294123      -0.15196399      -0.53427479       0.02755176      -0.30202169       0.10352700      -0.75112991
H      -10.09169497      13.71986424      -3.96343294      -0.03702947      -0.11176453       0.28718329      -1.49982713      -0.41338218       0.09398341
H       -4.24180443      16.40522288      -3.36872293       0.39350825      -0.19742576      -0.11019260      -2.15569564      -1.70775909      -1.62571952
H       -4.90544929      15.69205336      -4.96575488      -0.40767613      -0.04799617       0.26501367       0.30611787      -0.01659126      -0.32815951
C      -18.41029734      28.90670807      36.55680277      -0.02471325       1.62046601      -1.50044865      -0.01924432      -0.17523692      -2.25456412
C      -18.33578440      29.01081041      35.08251408      -0.29597238      -0.77596928       0.51392808      -0.87804681       0.14942464       1.50054343
C      -19.59446599      28.27231186      37.01472734      -0.15452279      -0.03119702       0.35559785       1.43878371       0.74238209       3.32245437
N      -17.44644391      29.34107344      37.36744726      -2.75260166       0.82992112      -0.87740149      -1.15037128      -1.26876860      -0.00105150
C      -19.42849588      28.47014414      34.28706652      -0.53894557       0.46503942       0.49590924       0.43566723       1.41676666       1.76732957
N      -17.19077839      29.56359226      34.46011404      -0.22754200      -0.03721449       1.18478168      -1.68249407      -2.24830186      -3.57249993
C      -20.68316730      28.21397778      34.92209527       0.93654670      -0.11451611       0.23140757       2.52101515      -0.40039663      -0.00920252
N      -19.30402948      28.35740063      33.02555711      -1.62073081      -0.43464577      -0.19136818      -3.19884555      -2.11653529      -3.26785156
C      -20.74417092      28.01720901      36.27153541       0.75510019       1.53631648       0.39448849      -2.44348451      -1.66629985       1.53782882
N      -21.79973130      27.85068357      34.21852595      -0.56298119       0.43524629      -1.70418176      -0.18191015       1.29595147      -1.85376772
N      -21.85882597      27.40951795      36.83698285      -0.45145825      -0.21153686      -0.13892038       2.00281952       0.88577934      -0.13778976
N      -19.61866117      28.14460863      38.47723063      -1.66245516      -0.65271744      -0.30191602       1.46410339      -1.08145081       2.57159911
O      -17.14999065      29.55080757      33.15452027       0.81256156       0.32629255      -1.35831862       0.61949958       0.58261718       3.02929085
O      -16.25113751      29.88430600      35.12236418      -0.88416917      -0.50559534      -0.53292995       1.49023905       1.25115943       0.65762358
O      -22.83546322      28.27228837       6.43744252       0.39209788       2.20071761       0.67470348      -1.26734273      -0.98252199      -1.54872456
O      -21.67492017      27.31037060      33.10463596      -0.65353334      -0.68721599       1.19477063      -1.29751055       0.11012449       0.83613321
O      -18.57333355      28.13962334      39.21008010      -1.83421562       0.73876013       1.44744286      -0.80851562       0.36542275      -2.43838300
O      -20.64476721      27.91792649      39.09914589      -0.26205714       0.15698095      -0.15882130      -1.48034862       0.13327080      -1.04981540
H      -17.33853728      28.87719269      38.28404883       0.02848818       0.00839446      -0.25016041      -0.32034069       0.92481250      -0.51412124
H      -16.82777173      29.93951185      36.91298900       0.00077929      -0.24820228      -0.24504460       1.54422748       0.58780765      -0.42916115
H      -20.06377337      27.80473541      32.50614415       0.25749462      -0.09498559       0.26633773       1.82486001       1.52889946       1.27143089
H      -18.42388149      28.53955778      32.62809955      -0.14998274       0.09640450      -0.22038144       1.01895317       0.40451594      -0.53244084
H      -21.78543525      27.39161975      37.84113864      -0.14689891       0.06583836       0.13792609      -0.61681699      -0.24875603       0.15125471
H      -22.69604022      27.26835971       7.98803354       0.22008592      -0.14854678       0.00331323       0.52392757       0.31778828       0.64101821
C      -40.40932767      31.26594939      44.41151289      -1.35905683      -1.54494373       0.56274722       2.96463838       2.06831649       1.85777415
C      -41.75359893      31.15267416      44.05718900      -0.36388545       0.35147110       0.43016112       2.08945716       2.74552776      -0.22472711
C      -39.62849821      30.15478720      44.91045489       0.19407913      -1.72302016      -0.45160711      -0.57070732       0.42279890      -0.49895162
N      -39.81235193      32.58500106      44.58703571       0.49689491       0.05683824      -0.47623723       1.66523207      -1.62895995      -2.21843645
C      -42.51426495      30.08725876      44.44212611       0.91697193       0.34481058      -0.52242563      -0.23849011      -2.01365858       0.88911600
N      -42.30032227      32.43430988      43.61524545      -0.54853913      -1.18132027       0.33224907      -2.65498894       0.61716047      -2.43136319
C      -41.77040253      28.99612171      44.98218956       0.58266051       0.20126488       0.30811196      -1.54074250       0.39373855       0.04254244
N      -43.84561540      30.09052268      44.37188535       0.53737083      -0.03648374      -0.65496494       0.81470787       3.37186054      -2.43940913
C      -40.33821155      28.96154181      45.19572417       0.91200761      -0.69232113      -0.56887333      -2.02295652       0.61510783      -0.89203016
N      -42.56772831      27.81679214      45.26777690      -0.99647829      -0.79087047      -1.86829343      -1.80878022       1.49887124      -0.12561275
N      -39.74628200      27.89573389      45.65362771      -1.58653077       0.71645800      -0.84737891      -1.11277576      -1.41499884       0.74069007
N      -38.16669514      30.23442476      45.22958708       0.11375171       1.73206658       1.25825906      -2.50958254      -0.93242645      -0.87717142
O      -42.12427031      33.44681772      44.31243665       0.12162530       0.89256737      -0.81589261      -1.16849695      -0.95873540      -0.94333807
O      -42.95446825      32.46797620      42.51555695      -0.62550529      -0.08536389      -1.30111095       1.77654708      -0.30226294       3.34966245
O      -43.80971980      27.81088871      45.48273813      -1.43423422       0.23364064      -0.94526473       1.55759807       0.65253604      -0.17644444
O      -41.97393138      26.79457652      45.23336509       0.89210944      -0.70628481       0.42524431       1.36846064      -3.30303945       0.30308263
O      -37.66088202      31.30517683      45.09626357      -0.08639339       1.71445382      -0.54911253       1.47573124       0.42237852       0.22610769
O      -37.58737475      29.17885868      45.55025282      -0.34306633      -0.29267202       2.37764822       0.17825417       1.42010092       0.03674584
H      -38.98071043      32.85224817      43.99579784       0.04784572      -0.25084039      -0.08556624      -0.74440924      -1.33703754       1.56785200
H      -40.38586788      33.38705544      44.55770085      -0.14864119      -0.02853817       0.12493399      -0.95906384       0.14625865       0.04674715
H      -44.32286334      29.31780312      44.69118322       0.06365515       0.13279330      -0.18818418      -1.47750033      -1.62309374       0.77577912