1296
Lattice="-38.3497542208638 3.4006353001279015 51.84709501355395 0.0 17.247165984522976 -1.5189118714572654 0.0 0.0 -28.400470240670344" Properties=species:S:1:pos:R:3:momenta:R:3:forces:R:3 energy=-1487789.9035346094 free_energy=-1487789.9035346094 stress="0.0018727218152429143 -0.0006726332737390479 -0.0016063586724515406 -0.0006726332737390479 0.0005831905702156239 0.0009655972964864897 -0.0016063586724515406 0.0009655972964864897 0.00251202395063632" pbc="T T T"
C      -25.63678193      17.23952742      29.09914109       0.20906097       0.35506165       2.08645234      -4.75142223      -0.14397115      -2.07923143
C      -26.65849581      17.66843540      30.05341985       1.36806302       0.15097999      -0.08381193       2.08358468       0.09924469      -0.19368574
C      -24.40159837      16.95503522      29.63350913      -0.69942236      -0.19273260      -0.59677092       1.23780007      -1.21646486       0.05132149
N      -26.01570566      16.99090297      27.78865976       1.54379823      -0.56261048       0.98535726       2.20071457      -1.07009755       0.26169246
C      -26.56339271      34.66450876      29.92961257       0.46575295       1.65959974       0.68806318      -2.85818080       0.20340391      -0.86565825
N      -27.72069190      18.44855393      29.58898547       0.95190940       0.06433309       0.67538965       0.52702186      -0.57920563       0.52232562
C      -25.44623970      33.90563515      30.31880629      -1.06911722      -1.21449707       0.34013878       0.31093663      -1.32630816       0.22190603
N      -27.66882673      34.98020239      30.66957743       2.19955576       0.65967992      -0.41343560       4.05491153      -2.93935349       2.15528332
C      -24.32968962      16.54312429      30.97135665       0.03401885       0.62114211       0.62524192       0.48555928       0.72886341       2.10406166
N      -25.38555198      33.24332939      31.57131451       0.34171258      -0.41849301       1.08584982      -1.45200009       2.11102762       1.58677267
N      -23.22067625      16.16140734      31.59401177      -0.27006751       0.45262951      -1.19626590       3.66349524       0.65430427      -2.18584755
N      -23.37541465      16.41322249      28.78326284      -0.69041581      -0.00144766       0.44838266      -2.42124905       0.82711169      -1.24653751
O      -28.34142103      19.10840086      30.40096122       0.18906106       0.53025706      -0.36017959      -1.12074924       1.41193431      -0.90783130
O      -27.95659705      18.42733413      28.40359160      -2.58015297       0.95292518      -0.54631018      -1.00231367       0.68829798      -1.32771664
O      -24.41209646      32.57292382       3.58155452       0.86525051      -0.61454109       0.23526331      -1.74692578      -0.14575411      -0.00355839
O      -26.35209420      33.51357368      32.32835286       0.49956833       0.30788027      -1.60354902       1.47646945      -1.23681584      -0.29091702
O      -23.68472217      16.15303059      27.63244468       1.64829158      -0.85622097      -0.61058734       0.02493668      -0.51719893      -1.20064807
O      -22.27648018      16.26501728      29.16138515      -0.64299210       0.93732041      -0.04284560       3.61057796      -0.32295494       1.76694559
H      -25.35314078      16.30848911      27.33006364       0.26530364       0.17984623       0.25236806      -1.13240574       1.59180616       0.45573908
H      -26.92032952      17.13245917      27.33027643       0.07284154      -0.27575147      -0.05796160       0.67432464       0.18400439       1.49141151
H      -27.53733817      34.64933969      31.64040041       0.27071495      -0.00758806      -0.29598216      -0.63619971       0.69138275      -0.72637922
H      -28.14638750      35.75944105      30.33559947      -0.54543831      -0.02106023      -0.08210729      -1.33298373       1.18977823      -0.15785124
H      -22.28728750      16.43520230      31.20459408       0.42943711      -0.24087543       0.20843498      -1.74819928      -0.71628489       0.11684758
H      -23.23109286      15.66597243       4.06299633       0.23553984       0.35717940       0.38160156      -0.25246285       0.22302401       0.19353364
C      -34.96225583       7.97781956      16.76495113       0.91120598       0.09305421      -0.38481403      -0.27441301      -1.56416015       0.84516493
C      -34.63057153       7.31685870      18.00198285       1.08909799      -0.07868123       0.24194035       3.32441614       1.87478440      -1.72474719
C      -36.31389626       7.73876590      16.29336968       0.10065326       0.58874535      -0.28865441       0.80500398      -0.46366137       3.68728086
N      -34.02397442       8.59455029      16.04572266      -0.25348212       0.40503796       0.46532928      -1.27806145      -0.69113478       0.85936175
C      -35.39416970       6.62090396      18.85852103       1.34968283      -0.89192751       1.21803519      -3.78127211      -1.21175875       2.03886131
N      -33.12017521       7.19714296      18.21989595      -0.25255888      -0.18082455      -0.42458825      -1.94724511      -3.82387342      -1.24208324
C      -36.85397203       6.68000544      18.61163455      -0.06171749       0.95506717       0.07290392       0.61080395       1.50845713      -2.93546814
N      -34.95320578       5.88973809      19.90286409      -1.81191604       0.18958117      -0.71491577       2.29337070       0.87000254      -2.25973396
C      -37.29491332       7.23959456      17.27959499       1.72463309       0.33081613       0.64443877       2.28220461      -1.46478593       1.96153389
N      -37.77569429       6.27167187      19.60098017       0.93769331      -0.17735982       1.47798533       0.72987936      -1.53913162       1.97256697
N      -38.55115876       7.13118469      16.98719416      -0.10870071      -0.74876934      -0.59773030      -1.58876528       1.10831338      -1.35451695
N      -36.69839739       7.98978546      14.99168060       1.22700288      -0.41216198      -0.59576971       0.21141735       0.51658327      -0.83472307
O      -32.73020786       6.00641618      18.25451311      -0.39608564      -0.67875071      -0.78623195      -0.44703345       0.90889918       0.73899542
O      -32.36989801       8.09090969      18.11776899       0.21012664       0.54686317      -0.36490236       1.26145224       2.62342546       0.20357016
O      -37.22276055       6.20511939      20.75088646      -0.69540676      -0.03990324      -1.27873157      -2.45266033       0.36248692      -1.53512571
O      -38.94983921       5.85112840      19.41495677       0.04474540      -0.17106490      -0.54238060       2.14794274       1.51994688      -0.35006060
O      -35.88981507       7.89366063      14.07927100       0.02589367       0.97451894      -0.18730739       1.01966115      -0.01130556      -0.15304440
O      -37.84311226       8.31014362      14.76992757      -0.79644517      -0.42147952       1.11644979      -1.84153550       0.35930627      -0.33125548
H      -34.29488351       8.61296407      15.10789798      -0.38245527      -0.06887105      -0.22669894       0.21434676       0.70299635      -1.70412138
H      -33.10696531       8.82092581      16.37579396      -0.19056646       0.04694126       0.30534656       0.00230636       0.02486931       0.05878938
H      -35.57486171       5.76186446      20.63964353      -0.07203441      -0.34901991      -0.08241765      -0.83312268      -0.60309709       1.09504006
H      -34.02808342       5.49234526      19.80259347       0.14191260       0.02438915       0.07124529      -0.36001927       0.35490787       0.43458870
H      -38.83357826       7.72376735      16.19208063      -0.46419876      -0.29528869       0.04055646      -0.20272422      -1.02221440       0.44806021
H      -39.17407559       6.54668148      17.52695438       0.32849458      -0.10028503      -0.12125695       0.09725831       0.31114129       0.14649776
C      -38.59669503      -0.08383594       6.11643270       0.07669053      -0.29048581       0.59318517      -0.12953104       2.06581414      -2.58869031
C      -39.46847812       1.05132591       5.86302508       0.69590138       0.00548376      -0.55884307       3.25554295       0.70247794      -1.58266287
C      -38.99372733      -0.87000272       7.12551540      -0.27583487       0.42168327       0.55342278       0.43790324      -3.05924261       2.55611435
N      -37.51281044      -0.38129111       5.38426182       0.27809916       1.26096971      -0.75002785       0.44592542       0.12719018      -1.06356102
C      -40.61115871      18.60926045       5.04021413       0.15391674       0.71067517      -0.25149553      -1.01747635      -2.16905936       1.83512233
N      -38.85649351       2.12447704       5.04700990      -0.21338968       0.38482462      -0.50293441       1.65820737       0.54178574      -1.90189035
C      -41.12350031      17.50900813       5.81354336      -0.01132747      -0.56337722      -1.17676762       0.59399591       0.06126366      -0.54053053
N      -41.07405055      19.83821689       5.03708531      -0.27367153      -1.14041428      -0.13959881       0.48523210       0.95217503      -0.67881094
C      -40.28433619      -0.82030341       7.74139892      -0.86867949       0.75093889       1.55565200       0.35771513       2.45506250      -1.94126530
N      -42.46083268      17.68055157       6.30205401      -0.96475205      -0.14601276      -0.32286252      -0.05774110      -0.85124356       0.86944178
N      -40.69135569      -1.69832962       8.59991150       0.27675083      -1.57038412      -0.35846416      -6.61678249       2.55549432      -1.93321276
N      -38.01626984      -1.85281462       7.71955187       0.34781896      -0.34655406       0.28785546      -0.57308163       0.67021483      -0.98537170
O      -39.53449858       2.87251434       4.33828745      -0.04219271       0.13055759      -0.40176525      -1.16723791      -0.55541790       0.86002830
O      -37.63188702       2.25015716       4.96939526      -0.38021185       0.48568879      -0.09789744      -0.47770758      -1.06267130       1.05947227
O      -43.22317931      16.70667112     -22.10315226       0.91806469      -0.20333637      -1.86317168       0.56551031      -0.26946977       0.23057473
O      -42.77497067      18.76241512       6.71655307       0.08703514       0.51334840       0.09227031      -0.42657879       0.89114477      -0.04314387
O      -37.15650260      -2.49617424       7.11174757       0.89032185      -0.89415376      -0.08588146      -0.87883756       0.66324060      -0.41461780
O      -38.11946202      -1.91720375       8.91545625      -0.56833732      -0.89733341       0.79199001       0.13583670      -0.45261555       1.76624165
H      -37.07415457      -1.27525066       5.53176451       0.21753585       0.03356111      -0.09184377      -0.01324408       0.03498859       0.16322186
H      -37.27498649       0.03120724       4.47080069      -0.25536113      -0.15473032      -0.11103479      -0.56286506       0.17648039       1.21460320
H      -41.98701625      20.21247142       5.12733812       0.14704886       0.23249256      -0.30787041      -0.73756816      -0.71832559       0.59855365
H      -40.54877092      20.31143702       4.34648228      -0.17802629       0.21765789      -0.22874861      -0.16831061       1.38442368      -0.67261401
H      -40.18500542      -2.26840634       9.08241700       0.16354391      -0.21131362       0.29131984       3.88912109      -4.10360737       3.22786923
H      -41.72593141      -1.73072521     -19.70323789       0.25164622       0.06601540       0.17566375       1.18465910       0.01634518       0.27351658
C      -27.19149583      -6.04347718      30.72865729      -1.23709122       1.14039099       0.91469406      -0.26322901       0.50053135      -0.78289123
C      -26.65086467      -5.09368368      31.59508375       0.15716022       0.10774627      -2.55137362      -0.45005372       0.80338264       0.60012783
C      -27.85185541      -7.18605524      31.26697226       0.06262642      -0.69869905      -0.09093855       0.07959475      -0.60825887       1.38860850
N      -27.03327973      -5.78352169      29.38253800       0.26005514      -0.47572487      -0.08055590      -1.22597036       0.72074678      -0.22447670
C      -26.58234634      -5.31818962      32.97268825       0.67786161       0.32338234       0.98640219       1.04758727      -1.43096599       1.90687246
N      -26.36347378      -3.66614820      31.12828982      -0.07808373       0.52585285      -0.36230155      -0.00538947      -1.62303666      -0.28957959
C      -27.18832869      -6.50146755      33.55986349       1.59307694      -0.47736384      -0.39646720      -1.20974183      -0.02927281      -1.02229551
N      -25.79124369      -4.58225288      33.75344202      -0.79458902      -0.35973358       0.18502966      -0.50708114      -0.03738642       1.41318110
C      -27.96126696      -7.39063896      32.69909862       0.57248936      -0.25344677      -0.13626743       1.47557797       0.45973923      -0.81955501
N      -27.25003763      -6.70008102      35.01982924       1.16920239       0.10085806      -0.05447146       1.66286333       1.38164788      -0.53102122
N      -28.53846885      -8.47291074      33.19282992       0.87446945       0.27364615       1.66810806      -0.01362020      -0.23813891       1.07811131
N      -28.45529199      -8.21106443      30.43166484      -1.91669189       0.24618172       0.80738340      -1.38455619       1.01395581      -2.04331227
O      -25.26252484      -3.16626735      31.34233397      -1.24509371       0.49411681      -0.51940241      -0.89760179      -0.43430781       0.06597479
O      -27.29215694      -3.12205456      30.55881891      -0.31648794       0.50869054      -0.46866442       0.49615983       0.14655257       0.07515671
O      -26.32290531      -6.30893053      35.75583847       1.33598189      -0.45018393       0.44439915      -0.56073842      -0.08381919      -1.17840700
O      -28.22647502      -7.21678124      35.49521899      -0.07484201       1.86604697       0.33003724      -1.01706473      -0.81505046       0.40213313
O      -28.00910659      -8.26913147      29.24805026      -1.36908973       0.02513987       0.37725936      -0.63122249      -0.29532667       2.60898205
O      -29.49551518      -8.81045824      30.78908506       0.13315253      -0.13598744       0.13031433       2.64661782       0.58008924      -0.65610941
H      -27.44463852      -6.50473611      28.82024230      -0.06512094      -0.13738494      -0.09489161       0.09545341      -0.34888377      -0.25821245
H      -27.44796676      -4.88137882      29.08816607      -0.38209970      -0.14745086      -0.14787583       0.87519298      -0.59538081       0.43635560
H      -25.72389292      -4.70746866      34.77255099      -0.14496294       0.21989871      -0.24739003      -0.30997696      -0.25046672      -1.09287880
H      -25.38190764      -3.77276274      33.39647690      -0.11431189       0.47828147      -0.16091814       0.70086312       1.02976555      -0.62736407
H      -28.88141206      -9.31337770      32.77787325       0.25404465       0.19368564       0.24853877      -0.11455439       0.49108471      -1.15606629
H      -28.56278486      -8.48571801      34.17962094      -0.61899227       0.24756941       0.19982790      -0.17098972      -0.10432662       1.00060690
C      -20.28326729      -9.80191359       9.83094889       0.43040719       1.07082525       0.78460877       0.84543737      -0.35278833      -2.20364656
C      -19.74087472      -8.50683286       9.52944308       0.81723295      -0.08289249      -1.03076229       0.62772726      -1.68278404      -1.55109449
C      -20.94330306      -9.95353620      11.06135766      -0.46010525      -1.05867332       1.57805075      -1.43812683      -0.32963868      -0.26751277
N      -20.04539222     -10.76650896       8.87599713      -0.92219194       1.41322492       0.41456229      -0.90100306      -0.82165045      -0.84365953
C      -19.39353255       9.57335589       9.02860368       0.12135609      -0.49880505       0.21213696       0.80445823       1.77773408       1.90823781
N      -19.17737857      -8.32729781       8.18071989      -1.12549207       0.76323064      -1.18129642       3.16634570       2.41455522       3.46109271
C      -20.20573542       9.44065337      10.23944611      -0.77384038       0.66845373       0.04964842       0.72886203       1.66587390       1.85249615
N      -18.38739867      10.46685401       8.93714605       0.61638376       0.15666406      -0.47033727      -0.04920684       2.31421981       2.07419202
C      -21.02791909      -8.93081147      12.04334159       0.17715524      -0.23264022       0.36907284       1.24845993       0.99450110      -0.34389942
N      -20.01896063      10.44223937      11.38744976       0.10057203      -1.08367659      -1.18966497       1.41351174      -0.87336994      -2.26250921
N      -21.64852415      -9.10060834      13.18515487       0.18450627      -0.73070433      -0.20309145      -1.53214868      -0.51608795       1.94971090
N      -21.96306028     -10.96281045      11.03051273       0.22637545      -0.00641470       0.04456342      -0.82062255       0.23449618       1.07496345
O      -18.09406698      -7.69269953       7.99635728       0.20432839      -0.52284071       0.01006058      -2.01942998      -1.26382358       0.44904617
O      -19.81508063      -8.79151637       7.31387096      -1.03944009      -0.45391796      -1.03408772      -1.50332824      -1.03748997      -3.59839208
O      -19.14142320      11.31142813     -17.15134668      -0.84354513       0.59443377      -0.16499117      -0.37883575       0.14005935      -0.20801174
O      -20.63478707      10.37066733      12.41177391       0.02427505      -0.57903341       1.30242877      -0.81722496      -0.21878180       0.73959505
O      -23.07404068     -10.76410702      11.55710940       2.10128807      -0.57795851       0.27060786       1.51754444      -0.44010723      -0.60203727
O      -21.67192505     -11.97388999      10.42418787      -0.27241770      -1.12118333       1.00993138      -0.58339802      -1.10986545      -0.07078330
H      -20.36297102     -11.79812706       8.95326455       0.14763969      -0.23315677      -0.09045804       0.54492383       3.07206133       0.18037768
H      -19.82634228     -10.36316700       7.89790822       0.11762245       0.08967102      -0.19452798      -0.60893900      -1.51808696       2.43315417
H      -18.40079190      11.19942107       9.78630115       0.12227378      -0.12067916      -0.30653384       0.38651071      -2.47190329      -2.82610262
H      -17.81326017      10.59625142       8.06727608      -0.16528354       0.29625916       0.13812030      -1.25202629      -0.53011185       1.28253293
H      -22.40226340      -9.78320725      13.24731902      -0.33101946       0.09972102      -0.02407301       0.62512612       0.11900956      -0.46735379
H      -21.68941023      -8.44752160     -14.41028158       0.00861787      -0.12709934       0.18001259       0.51336167      -0.46936940      -1.79533724
C       -6.81808938       6.89040507      -0.00089402       0.14247346      -0.94657468      -0.46419389      -0.73007458      -0.82177244       1.03462939
C       -8.03762423       6.22853391      -0.30113668      -0.32200274       0.21433674      -0.66159582      -0.89953228       0.80552607      -0.40308815
C       -6.40105423       7.86006730      -0.87294538       0.04085467       1.92182002      -2.15251149      -0.28433550       1.52496771      -2.38745977
N       -6.18909089       6.64779436       1.13288969       0.75232835       1.23573516       1.12829799      -0.18880486       0.85351926      -0.76733171
C       -8.65297160       6.37607927      -1.54744982      -0.17698911       0.26152863      -0.25223009      -1.37428475      -2.20092633      -0.08364156
N       -8.87023346       5.61163235       0.71992346      -0.09136806       1.37652797      -0.82166697       2.26429679      -1.07150345       1.66356535
C       -8.17115760       7.28314783      -2.53076613      -0.75440307      -0.20253254       0.08212643      -1.51882804      -0.90629432      -0.20711877
N       -9.66001613       5.48769840      -1.84615382      -0.35565932      -0.33562447      -0.43738705       1.80551788       2.16765310      -1.84444030
C       -7.20201740       8.16849389      -2.12869308      -0.83294553       0.33302347       1.11370595       2.89888597      -0.58930693       2.63312828
N       -8.84874748       7.46439203      -3.80404397       0.46878581       0.21126884      -0.49401330      -2.31760864      -1.03612447      -1.40176641
N       -6.87309091       9.11566117      -2.92346945      -0.43545338      -1.76492311      -0.22308083       1.15648380       2.96918579      -2.16697782
N       -5.31594826       8.72053167      -0.41938543      -0.14862335      -0.67773621       0.09976590      -1.46773893       0.11611662      -0.73773633
O      -10.03489648       5.88437494       0.83551092       0.98871163      -0.58800528       1.56898757      -0.42067272       0.16373260      -0.55520806
O       -8.28040808       4.84384153       1.52334845       0.31968726      -0.99189151       0.47639813      -0.62260748       0.70223019      -0.79967636
O       -9.54362592       6.52828166      -4.24070063       0.04846439      -0.70001635      -0.03225341       1.36108919       0.68643403       0.95877226
O       -8.86242929       8.52518173      -4.47794313       0.42940163      -0.35434373      -0.17321072       1.14109044      -0.55061367       1.34236962
O       -5.33471736       9.85239075      -0.88406240      -0.25380453      -0.04955711      -0.01702218       0.79932631       0.12677440       0.21182521
O       -4.52167203       8.33512210       0.42882396      -1.32714942      -0.34281062       0.85614766       0.27103043       0.60865861      -0.67216629
H       -5.28259042       6.94682871       1.32461933      -0.12866120      -0.16652943       0.20050974       1.34589930       0.97905978      -0.08419408
H       -6.45441318       5.91199131       1.65715499       0.05101777      -0.12158682      -0.12459895      -1.52320439      -2.84383559       1.92826262
H       -9.58181539       5.21005747      -2.79841719      -0.56027112      -0.03588998       0.14856075      -0.80265743      -0.16661434      -0.54173368
H      -10.19062232       4.94799123      -1.24796408      -0.00845775      -0.52555633       0.08401923      -0.63783860      -0.97305631       1.70380813
H       -6.14805456       9.79460140      -2.66789306      -0.33604907       0.06465111      -0.22273435      -0.61604342      -0.57972116      -0.01630296
H       -7.40850584       9.20830037      -3.82062092      -0.34872360       0.17052956      -0.25023475       0.69130183       0.08425494       1.35436997
C      -19.35487596      32.62339610      32.58286609       0.61234583      -0.31704125       0.16577514       1.30911553       3.31886119      -2.11198066
C      -19.79785396      32.09120698      31.30581631       0.16343904      -0.08620444       0.16587352      -0.85579234       0.36516205       0.41238858
C      -19.31673337      31.95083131      33.78707915      -1.27610499      -0.14305105       0.35796113      -0.56090558      -1.89155433       0.38429332
N      -18.89339090      33.89265838      32.51171956       0.38829304      -0.81654725      -1.81869946       0.16941415      -0.55541684       0.20228446
C      -20.44708335      30.83421798      31.27867954       1.75595485       0.51617762       0.33014932       1.10696188       0.75665302       3.08770128
N      -19.93606316      32.96176834      30.09600278       0.09814366      -0.90247610      -2.07776625       1.32621803      -0.04893559       0.09857833
C      -20.60649290      30.22269037      32.63793537      -0.49090017      -0.99374521       1.89809674      -0.78803436      -1.25717383      -0.07559628
N      -20.84835610      30.29953304      30.17458436      -0.06236402       1.20360613      -0.44302926      -1.56100043      -2.20219508       1.55437657
C      -20.00389650      30.70826751      33.88841305      -0.31855675       0.44728318       0.74421703       0.29430040       1.08573545      -1.97997209
N      -21.50324939      29.06865301      32.78154507       0.80541642      -0.19875856      -0.93394754      -1.13585256       0.17286492      -1.03648669
N      -19.96403705      30.08572989      35.04349929      -0.63397971       0.04845198      -0.59966491      -0.95888239      -1.35332013      -0.07493070
N      -18.61593123      32.47720713      34.93585458      -0.23714296       0.27534615      -0.72308636       0.24868827       2.48051522      -3.25680992
O      -19.80852232      32.43451704      28.98304372       0.59421711      -1.96056825       0.06344259      -0.42942053       0.80579721       1.58901355
O      -20.05941262      34.21006919      30.22666707       1.59729366      -0.83640600      -0.84808815      -0.22259686      -1.83777020      -0.38251107
O      -21.77561883      28.67029518       5.52373332      -1.34533155       0.26619424       1.72623769       0.41464839      -0.11015613      -0.68796423
O      -22.09911387      28.56202578      31.79069009       0.44820154      -0.74424490      -0.04374436       1.48465253       1.12673569       1.40859063
O      -19.05521362      32.31974291      36.03324216       0.99414122       0.60868998       1.04211014      -0.04826936      -0.70304885       2.02955172
O      -17.68347711      33.26879631      34.66512640       0.95391951      -0.45440413       0.24266659      -0.35433763      -1.10115588       1.14912247
H      -18.40898704      34.32908544      33.31541978      -0.08859323       0.12731329      -0.17914515      -0.46002830      -0.64537097      -1.29088046
H      -18.93952285      34.24643850      31.55609440       0.18194448      -0.18246916       0.06084089       0.20038237       0.83880168       1.16062354
H      -21.51041782      29.56518818      30.20141089       0.38862546      -0.32741378      -0.25620262      -0.28728592      -0.99747715       0.41558103
H      -20.73465420      30.65876112      29.30649012      -0.00364644       0.02300987      -0.31146710       0.91119536       1.69597246      -2.73736453
H      -19.77378851      30.55988635      35.89710848      -0.09525152      -0.35315050       0.07179634       0.33355860       0.41421097       0.11319415
H      -20.40801957      29.18881627       6.67153245      -0.26563180       0.13884126      -0.16830418      -0.22433860       0.00411271       0.13932761
C      -51.57249297      24.54435254      36.49381716      -0.21600783      -1.37509445       1.67187166       2.61719330      -0.65043633      -2.10321782
C      -51.89152026      23.40742131      35.72038697      -0.54562412       1.04909997       0.39893755      -1.37824410       0.04584613      -0.41149356
C      -50.17355520      24.66915010      36.67086586       0.22321215      -0.92402038      -0.33411743      -0.29312325       0.13118544       1.30961739
N      -52.35813476      25.53328974      36.76920897       0.00075180      -0.98783478      -0.33977667      -3.93849214       0.23967348      -0.02395555
C      -51.01621066      22.53434207      34.95322349      -0.78303851      -0.44906625      -0.07914637       1.25889277       0.89219893       0.12032177
N      -53.31801350      23.18845244      35.56605061       0.74976179      -0.54095282      -0.30303801       0.56099469       0.70892829      -1.03003394
C      -49.59480940      22.78902551      35.01351490       0.33453866      -1.92194785      -0.49737762      -1.00311446       1.61279664       1.88702484
N      -51.43874041      21.61673616      34.12316963       0.44636435       0.19492985       0.96251801       0.05562466      -1.12750896      -1.57329516
C      -49.27662656      23.76154377      36.05500486       0.43402737      -0.57058121      -0.55336336       1.22613168      -0.77476447      -1.30481356
N      -48.55770035      21.92865463      34.45928412       0.50161606      -1.15530628       0.09343089      -3.44642762      -1.18731496       0.66288903
N      -48.02082873      23.79794420      36.47200656       0.42380892       1.67608618       1.05553804       0.54884290       1.23889511       0.89058330
N      -49.81452326      25.62845086      37.68179505       0.20394607      -1.27149081       0.45404856       1.63634329      -0.98621261       0.12424357
O      -54.11745386      24.15031721      35.39342044       0.69938106      -1.88408586      -1.76719517       0.72872781      -1.70813360       0.59985748
O      -53.60851335      22.02679317      35.52326659       0.55940319      -1.33054621       0.32331048      -1.57397765      -0.56143810      -0.10811097
O      -48.92691580      20.85109580      33.96511862      -0.15003011       0.90560389      -1.42721669      -0.11976593       0.31919599      -0.36201285
O      -47.40309907      22.18616649      34.54963488      -0.26044791       1.59527493      -0.24927917       2.46511906       1.18884674       0.03187554
O      -48.61292407      25.83855314      37.95507827       0.30716433       0.32981431      -0.74017112      -1.11058949       0.35951884      -0.27136735
O      -50.71097516      26.16214397      38.32673723       1.10651377       0.33711881       0.55351993       1.04383052       0.39999805       0.70152059
H      -52.18660345      26.20402865      37.51050064       0.33729194      -0.16716792      -0.05806071       0.27716656      -0.30789700      -0.60008755
H      -53.30814127      25.41599643      36.39798707       0.04731271       0.01644870       0.07095293       0.53465756       0.21480831       0.30655128
H      -50.82491934      21.18056136      33.40973414       0.38655524      -0.29190507      -0.31920352      -0.26838753       0.61340776       1.37940129