1296
Lattice="-46.19260662962235 -15.557190227045494 12.037942885490827 0.0 15.354628097422793 14.811963479487199 0.0 0.0 -29.956579152904833" Properties=species:S:1:pos:R:3:momenta:R:3:forces:R:3 energy=-1487782.919825629 free_energy=-1487782.919825629 stress="0.0032647527345079654 -0.0008822117538873743 0.000589145100687832 -0.0008822117538873743 0.004926490512856541 -0.0002347794441635344 0.000589145100687832 -0.0002347794441635344 0.002430396415968238" pbc="T T T"
C      -26.43677684     -12.10923978      -3.20859574       0.10800768       0.51423059      -0.47426951       0.85367360      -1.19857092      -1.79518263
C      -25.83745626     -13.43472810      -3.51326935      -0.41660611      -0.35822189      -0.12890856      -0.49382046       2.14458815       1.26309929
C      -27.81923862     -11.94889400      -3.65678082       0.10571078       0.35740220      -0.36058269       1.20063557      -1.30162796       0.33421691
N      -25.58299967     -11.11541735      -2.82809401      -0.26530029       0.36041302      -0.72859965      -0.96745764      -1.09341455       0.29302722
C      -26.40705038       0.79128338      10.71099528       1.50414115      -0.68737697       0.25442695      -2.32065891       1.55725076       0.81225674
N      -24.39898822     -13.30793041      -3.61817992      -0.13836362      -0.52622152       0.31197519      -0.90110005      -1.22528116      -2.97771268
C      -27.83284460       0.89543664      10.49966005       0.13171075      -0.04642921      -0.79852737      -0.80510698       0.97924657      -1.89066988
N      -25.75305243      -0.29889825      10.42325093      -1.62889006      -0.98507867       0.40894115      -1.10882483      -2.01030481      -1.51284955
C      -28.49212147     -13.17012851      -4.19201928       1.30399394      -0.06890650      -0.20277232      -0.67240277       1.80405177       0.25185574
N      -28.44905886      -0.11031846       9.55546691      -0.68357760      -1.58444646       0.39338745      -0.65540813      -0.03842946       0.75872956
N      -29.79256028     -12.99483469      -4.58893907       0.69950300      -0.03622954       1.32064679       1.68718230      -3.92775110      -0.78376501
N      -28.38733304     -10.60087161      -3.78983815       1.48431744       0.33435556       0.79896353       1.28352510      -0.10697976      -0.78323460
O      -23.72340988     -12.98014488      -2.70289225      -0.11333746       0.15125665       0.23572312       1.55930554       0.43511432       1.92819981
O      -24.00007024     -13.49065359      -4.76917558      -0.59801808       1.87615703       0.82641772       0.69916865      -0.05963198       0.62272749
O      -28.00888259      -1.26506042     -20.36679947      -0.09442257      -0.64442170      -0.27479482      -0.17547450       0.66365328      -0.09573457
O      -29.40742714       0.17059582       8.81591069      -0.44694779      -0.80119255       0.92546957       1.17362476       0.05361829       1.02052467
O      -27.55835062      -9.62318744      -3.71912357       2.00230020      -0.41270715      -0.57528646      -2.95299586      -2.15096999       0.17366189
O      -29.58384254     -10.51091255      -4.09394406      -0.05522869       0.19605167      -1.44357779       1.74388117       0.82097636       0.86657892
H      -25.92953893     -10.20011918      -2.95585999      -0.06430259       0.00723438       0.39635454      -0.36469660       0.94476230      -0.01244673
H      -24.64104080     -11.22684616      -2.44676799       0.09569833      -0.04399414       0.15326553      -1.00779055      -0.39044307      -0.41443423
H      -26.21438106      -1.13592690      10.06670200      -0.02926574      -0.11768282       0.20406413      -0.28579737       0.86743175       0.14567396
H      -24.92635128      -0.52467829      10.83750341      -0.32049270      -0.00345864       0.07777381       2.81074259       0.19473505       1.18706616
H      -30.35699486     -12.35898343      -4.13945519      -0.11274330      -0.10786344       0.47590393      -0.94615899       1.84464581       0.86174078
H      -30.24005438     -13.88642081     -34.79787103       0.09588943      -0.09867960      -0.20431564       0.24774902       1.07052139       0.01582818
C      -50.16500938      -6.77403277     -13.68022857       0.79229681      -0.33828747       0.49051973      -1.53023340       0.64490833      -2.70408274
C      -49.98764167      -7.25357497     -12.42354402      -0.16785970       0.04801691      -0.01888037       0.28056130      -2.59711711      -0.20291316
C      -49.80516286      -7.63488918     -14.81366891       0.57741664       0.60751482      -0.50758559       0.98285073       1.04728926       0.16394022
N      -50.87591748      -5.58468140     -13.88165235       0.28856445       0.04056004       1.26304129       1.65795549      -1.44138332       2.31161361
C      -49.38340123      -8.50590537     -12.17347575       0.19891631      -0.67309155       0.27671758       0.70977446      -1.76800759       1.81556510
N      -50.59605921      -6.57379981     -11.33704644      -0.33386429      -0.16971107      -1.02222606       1.60079501       0.59439877      -0.74147462
C      -48.88324537      -9.31014069     -13.26352859       1.17779321      -0.93417255      -0.52972169      -0.34493038       0.65298313      -0.88737282
N      -49.29779983      -8.91424961     -10.83982879      -0.90548978       0.29874849       1.08301520       0.18517834       0.04638461      -2.75849249
C      -49.13558290      -8.90145514     -14.66916286      -0.50280332       0.18450253       1.08568740      -0.24203708       0.44135548       2.94749219
N      -48.15003357     -10.52583176     -12.94851944       0.35910631       1.97357105       0.24892404      -0.38900498      -0.68938565       0.88381996
N      -48.77944228      -9.68693666     -15.67220399       1.14217419       2.32677800       0.57154122       0.23501891      -1.45346119       1.11818815
N      -49.93216845      -7.06458677     -16.13829700       1.11461866       0.54354013       1.32659878      -2.55708821      -0.43949737      -0.21985853
O      -50.16816157      -5.47189534     -11.18822135       0.58158456      -0.82255707      -1.72568176       1.08629201       3.72063493       0.16562264
O      -51.37441437      -7.03766589     -10.59507290      -1.33977304       0.71929946       0.71069990      -2.34217074      -2.53800589       1.82921641
O      -47.98140180     -11.42844251     -13.79034663       0.46483361       0.05612998       0.08715160      -0.16155096       1.49857311       0.64248029
O      -47.77410055     -10.66492175     -11.76402345       0.37998181       0.41156443      -2.38530943      -0.18158022      -0.22263497      -1.88063360
O      -50.79721798      -6.17010553     -16.34772334       0.32910883      -0.18598784      -0.28608856       1.37514383      -0.54422767       0.33849524
O      -49.38276514      -7.60079464     -17.08322458       1.35164567       1.89458275      -0.11086240       0.60875731       0.18248479      -0.08146185
H      -50.73201799      -4.96936232     -13.06996986      -0.45744212       0.11101669      -0.13675034      -0.33695420       0.02803265      -1.20711341
H      -50.98944047      -5.33158024     -14.83882295      -0.00823654       0.46817104       0.26564468       0.08724084       0.47929780      -0.38365417
H      -48.91173102      -9.82563759     -10.58899619      -0.23401171      -0.16364577       0.02120607      -0.17050337       0.86379374      -0.44887446
H      -49.86871166      -8.39285972     -10.23999846      -0.04078581      -0.37125887       0.48327631      -0.49688920       0.19729012       1.10195642
H      -48.93931904      -9.31281084     -16.55794348       0.47538672       0.29637865       0.05619470      -0.30542042       0.22284483      -1.60691709
H      -48.73750677     -10.70179701     -15.50113396      -0.35505379      -0.09047686      -0.15013267       0.38696500       1.07465019      -0.03321203
C      -44.96792665     -11.04794299     -47.49199107       0.84529455       0.43986642       0.55410340       2.03154874      -0.96628623      -1.44494980
C      -43.98368827     -10.23745524     -46.85786104      -1.17164787       0.31067269       0.80752321      -1.20097510       1.52783581       0.56608412
C      -44.51073775     -12.34365690     -47.86400567      -0.25504526      -0.30563594      -0.04005487      -0.45681127      -0.68337090       0.19768704
N      -46.10377734     -10.65835725     -47.99668885       0.31765904       0.52268904       0.48197621       0.43474641       2.77000557       1.33723373
C      -42.94332131       4.59316695     -31.29603106      -0.08785473      -0.06075517       0.49436698       2.36537607      -2.04561076       1.83589970
N      -44.31678310      -8.86810573     -46.63029753       0.99546542       1.12698128       0.09961155      -0.96137641      -0.23645227       1.21472792
C      -42.68409306       3.15501911     -31.45154276       1.20372113      -1.34369712      -0.32009749      -0.18892307       1.08059682      -0.82097024
N      -42.19248492       5.29594876     -30.39696622      -0.92179996       0.74355991      -1.34426485      -1.05691617      -1.55613585      -1.99997825
C      -43.36033539     -12.94488235     -47.29451025      -0.26300288      -1.01738237      -0.15319674      -0.67251047      -0.02522917      -0.05809818
N      -41.64328114       2.49961475     -30.72775052       0.24034368       1.07756721       0.43522417      -0.93640047       1.03658325      -0.45745138
N      -43.00849310     -14.17019032     -47.68276283      -2.59881147      -0.89838038       0.22423726      -3.23097216      -0.19095538      -3.16060324
N      -45.39409640     -13.13563854     -48.73539653      -0.16059832       0.64655671      -0.85341941       0.97558641      -0.90003781      -2.00644337
O      -43.77324288      -8.23738618     -45.71250907       0.33226759      -0.98308509       0.38996705      -0.65737986       0.21914326      -1.29336542
O      -45.25671170      -8.40408899     -47.27920452      -0.32115634      -0.93229851      -1.03929835       0.55869242       0.68326615       0.21940818
O      -40.86103722       3.09343382     -60.00222176       0.08100082       0.94649795       0.44403497       1.51179068       3.00429820       1.48744320
O      -41.54757274       1.31626993     -30.75947920      -0.80444148       1.02460077       1.89643911      -0.67897450      -4.04372494      -0.91396190
O      -44.95771083     -13.86890407     -49.63938118       0.19404181      -0.82996925       0.44981771       1.10689516       0.27554053       1.57869447
O      -46.59900014     -13.01249589     -48.66782468      -1.69735507       1.58879919      -1.58313561      -1.10508396       0.25989750       0.91659221
H      -46.59120345     -11.40549839     -48.38447569      -0.06626640       0.37628426      -0.27419730      -1.99319867      -0.72115788      -0.88769201
H      -46.33754299      -9.67744930     -47.88403502       0.00549308       0.21652212       0.10098026      -0.33723112      -0.48653443      -0.32439342
H      -41.40360627       4.79433688     -30.05263851      -0.27524952       0.08784581      -0.12944009       0.39243979      -0.01610512       0.53156841
H      -42.49426319       6.21659356     -30.18528373      -0.50246807      -0.23369312      -0.14852881       0.18504919       0.54593050       0.18934102
H      -43.63797923     -14.69741775     -48.41932628      -0.02345515      -0.23390759       0.06860310       2.03432533       1.58816984       2.13900789
H      -42.41724941     -14.63803638     -77.04884463       0.08936192      -0.17988610       0.19268715       1.62385250      -1.47005656       1.26655770
C      -33.69642512     -20.91792307       4.28179927      -0.69092936       0.03113166      -0.83965130       0.45503619      -0.24899031      -0.77142730
C      -34.75754913     -21.81660557       4.10558449       0.66586601      -0.67890880       0.79351874       0.06786914      -0.01466155       0.66966957
C      -33.59756348     -19.86337852       3.35869004       0.08392475      -1.16479090       1.35508642       1.31733375       1.88571341      -1.04483394
N      -32.71450293     -21.02956710       5.16279326       0.22125393       0.88185950      -0.16718314       1.60437900      -1.87624401       1.67758365
C      -35.91639426     -21.54440031       3.32564988       0.00951941       0.71686665      -0.24638289       0.69722304       0.42518195      -0.03950727
N      -34.48818459     -23.11599793       4.78059735      -1.43295302       0.55927229      -1.85984187      -1.62339784       2.14443570       3.79948308
C      -35.92531750     -20.24536430       2.72169274       1.85168996       1.31666900      -0.02659892       0.79669108       2.45056012      -0.15663056
N      -36.91406759     -22.43248397       3.22485277       1.68607390       0.30116508       0.20887595       2.11463303      -1.78816841       0.44727264
C      -34.75433197     -19.28125045       2.76713395       0.00339750       1.26595964      -0.21622218      -0.80006405      -3.30294572       2.30858888
N      -37.13817301     -19.67717356       2.23767448       0.83734693      -0.88623527      -0.77911654      -0.54662446      -2.20739333       0.40342798
N      -34.79946668     -17.98054548       2.61701192      -0.57892248       1.15253514      -0.95351606      -2.47953135       0.74765867      -1.62826784
N      -32.28315433     -19.16165935       3.09718459      -0.59768423      -0.85050332      -0.04216376      -3.55949095       0.02763320      -1.42972006
O      -34.53860058     -23.13459042       6.06407917       0.57220247      -1.12621229       1.11099441       0.32825189      -0.01612767      -3.19592834
O      -34.23406830     -24.03327804       4.09026571      -1.00488095       1.77825110      -1.16248882       0.34971069      -2.00674241      -1.11117979
O      -38.16994673     -20.41421022       2.23832225       1.14892631      -0.30027106      -0.02265976       0.83798939       1.12259210      -0.02353211
O      -37.14442881     -18.53883148       1.85516131       0.02066812      -0.95964667      -0.14420982      -0.79402180       0.74871519      -0.45386707
O      -32.41513574     -18.16272006       2.32039273       0.86109263       1.13332432      -0.15825444       2.78422404      -1.55494619       1.64569242
O      -31.24208241     -19.67311447       3.45875642       0.45808687       1.21891814      -0.45580279       0.14838628       1.05392948      -0.42691877
H      -31.81043881     -20.60884773       4.90156512      -0.08795922       0.16518569      -0.22547423      -0.75454946      -0.21379511       0.43265089
H      -32.65342058     -21.80208684       5.86579069       0.14492121      -0.15707122      -0.18553353      -0.49335366       1.17721411      -1.24931315
H      -37.75157818     -22.22971441       2.71963724       0.09022803       0.25132773      -0.11260275       0.02978072       0.15065951      -0.26833234
H      -36.55756310     -23.41049392       3.31272847      -0.04860682      -0.12345761       0.11652773      -1.18885802       1.24091745      -0.01333724
H      -33.98330065     -17.44273457       2.67377518       0.00953296       0.08144178      -0.33372179       1.19591024       0.18440363       0.22581139
H      -35.43451197     -17.63651287       1.91757362      -0.34602492      -0.11418772      -0.13847636      -0.56773608       0.06384032       0.20954316
C      -21.76893799      -5.45186491      -0.20209593       1.63056294       0.85008779       1.03060668      -1.62231168       1.00107340       1.05000294
C      -23.11578454      -5.13284591      -0.66254656      -1.31599817      -1.62598714       0.99944517       1.83153993      -1.48495723       0.73611593
C      -21.55738983      -6.62157349       0.61803945      -0.33843459      -1.34866967      -0.39658935       0.01371612       1.56438698      -0.97718050
N      -20.89381281      -4.48447383      -0.32184923       0.07207582      -0.21198308      -1.20766572       4.23848944       0.85229806       0.18504589
C      -24.15999323       9.27153751      14.40475344      -0.39728510       0.51866147       0.43239008      -1.97125964       1.15024236      -1.38851758
N      -23.28452158      -4.01400854      -1.56681401      -0.18000180      -0.30786814       1.46415192      -4.97058842      -3.84373660       0.29713354
C      -23.92528556       8.05772386      15.15553137      -0.65971414      -0.91362469       0.07677921       3.17628817       0.02703983       0.45208620
N      -25.36673812       9.60245909      13.86754173       0.56429389       0.01410775       1.32880803      -2.56698170      -4.67538037       3.13265147
C      -22.56622975      -7.52065275       0.92689260      -0.26043165       1.14926760      -0.04765682      -1.70102337      -0.42727530      -2.20401523
N      -24.82899152       6.94437077      15.18794280      -0.86914652       0.48638332      -1.35442542       0.26318386       1.50960046       0.23076413
N      -22.17309683      -8.62686345       1.52159418      -0.72970687       0.22545448       0.34317259      -2.49180453      -2.47444293       0.86707406
N      -20.20998504      -7.05255927       0.86546588      -0.10920795      -0.62421773      -0.17329302       0.87123791       0.90737012       0.23230293
O      -22.54241379      -3.13162141      -1.67348600       1.00301672      -1.40241136       0.04676056       4.25192108       3.84021363      -0.06414240
O      -24.33705121      -4.00142605      -2.23173131       1.12180768      -0.22852356       0.92101928       0.48415267       0.13748378      -0.09355290
O      -24.39592562       5.78361719     -14.73416727      -0.14605939       0.53223282      -0.44211975      -1.13618766       1.16233828       0.01986699
O      -26.00737112       7.31121304      15.21727919      -2.46035948      -0.19804402      -0.33481308      -0.17284350      -1.68500551      -0.19759552
O      -19.37449300      -6.81128216       0.04790034       0.99770686      -1.18335804      -1.31086131       0.96405276       1.18081984      -2.91639725
O      -19.84630679      -7.60505627       1.87394242      -1.31150048      -0.66779646      -0.48096966      -1.03795132      -1.17928014       2.57512465
H      -19.83354030      -4.65952175      -0.14428716      -0.17794221      -0.14228897      -0.45361307      -2.94021236       0.18672404      -0.43600600
H      -21.16644480      -3.55630695      -0.72126294      -0.27215991       0.33494972       0.26924060       0.26687383      -1.58199715       0.34830298
H      -26.17631688       8.87358703      14.19620460       0.15622817      -0.22374331       0.12812791       2.87638701       2.99512618      -1.42824418
H      -25.52435672      10.49311692      13.40557509      -0.06836242       0.07149546       0.18296218       0.27065427      -0.77138315       0.06095019
H      -21.42890091      -8.58903102       2.19164005      -0.22230405      -0.44341988       0.30412186       0.37745010      -0.08377992      -0.21563461
H      -22.81496765      -9.45441657     -28.43567382      -0.01166624       0.12289072       0.05978632       0.81320555       1.46656248       0.19932773
C       -0.21780726      18.31023823       4.02112483       1.08014874       0.20650951      -0.10272756      -0.65485692      -1.11689815       1.37911712
C        0.35130542      17.54401465       5.08777702       0.33212463       0.75109045       0.00229108      -0.93520837      -2.17190469       1.70387709
C        0.56615773      19.39563891       3.55543035      -0.26198240       0.19582559       1.84102367      -0.14278831       0.46539929       0.60532443
N       -1.44293960      17.96123171       3.64105146       0.57906628      -1.14327940      -1.57733550       0.08666843       1.74490227      -1.06673499
C        1.62656663      17.71544728       5.66891886      -0.12176065       0.10629139      -0.42891111      -1.94321522      -0.21147684       0.33870895
N       -0.47318829      16.41820480       5.70517691      -1.26994188       0.33306736       1.20141734       0.33623925       0.63742464      -0.34580676
C        2.30813101      18.86496363       5.27131317      -0.44063470       1.23365573       0.40865442       0.83448605       1.24576290      -1.88261929
N        2.11826829      16.85750712       6.53972718      -0.19944959      -1.04161616       0.93313764       1.89213358       0.33826212       0.23596342
C        1.90225759      19.58046474       4.07155998      -0.19624433       0.03562275       1.43621392       1.28776239      -0.31035517      -1.80787417
N        3.72323479      18.93787065       5.55551826       0.51904909      -0.16928468       1.37282631       2.24813328       0.06074581      -1.62056148
N        2.77617847      20.25717015       3.25805247      -0.23837231       0.99238922      -1.55405698      -2.84612879      -1.67900301       3.01620012
N        0.01804695      20.34514631       2.65855129       1.11315091      -0.56384103      -0.84504014      -1.21688303       0.78016749      -0.21006976
O       -1.45759061      16.08829438       5.03468395      -0.19811274      -0.66529538       0.00070757       0.43460785      -1.47507234       1.79039438
O       -0.22327953      15.86957672       6.80042291       0.59595927       0.88714508      -2.14633821      -0.23087558       1.19157536      -2.05557459
O        4.24765739      18.90097747       6.63281517      -0.09998088      -0.26717809      -1.56795718      -1.64542863      -0.36051732       3.33779454
O        4.52743403      19.00706814       4.62394838       1.26063928      -0.92691379       0.76202617      -0.79142311       0.02759885      -1.72179199
O        0.67554775      21.39860552       2.40755906       0.20111132       0.52086609      -0.60202566      -1.30227668      -1.56795307      -0.09564452
O       -1.14635648      20.15566874       2.22302616      -0.85338514      -1.07888070       2.19222501       2.17973910       0.50396077       0.32759123
H       -1.87564382      18.58235852       2.99521131      -0.55149710       0.00523778      -0.56146895      -0.15115731       0.34276847      -0.44960759
H       -1.92624283      17.18742825       4.09029212       0.16118806      -0.21925251      -0.19135085       0.45007134       0.36007894      -0.30358399
H        3.09872206      17.00048180       6.68263524      -0.16100819      -0.18533790       0.02204478       0.20165245      -0.25354630       0.69085595
H        1.68726847      16.04973437       6.96290238      -0.03518680      -0.24798297       0.05616286      -0.47820577       0.36235176      -0.47569274
H        2.31478803      20.62243532       2.46635428      -0.14225926       0.45135129      -0.13787455       0.26361482       0.92409149      -0.67616057
H        3.73379102      20.16111925       3.45302921       0.39132289      -0.16510878      -0.21418633       1.30326171       0.34669608      -0.18441712
C      -33.39583613      14.86587950      43.54596737      -1.26922393      -0.98167141      -2.00293348      -2.75575147       1.26451111      -1.89982808
C      -33.05262684      15.84430932      44.49330711      -1.82967177      -0.33499666      -0.30292322       1.52450882      -1.35778131       1.04382936
C      -32.42941850      14.03006457      42.99833636       0.86355157       1.70999617      -0.74332915       0.66703997       0.32645539       2.02026628
N      -34.60064924      14.86629456      42.94976100       0.88443267       0.24076403      -0.18975253       0.12550465       0.30293665       0.66461614
C      -31.86133443      15.54767320      45.26942180      -0.77895096       0.37182823       0.01588879      -1.43472065       2.45849962       1.41387859
N      -33.97852454      16.81155730      44.85809729       1.24470466       0.40143429       0.96231752      -0.95250627       1.91649577       2.92315570
C      -30.94814458      14.62360816      44.70933397      -0.90414176       1.02221152       0.35029362       1.33622219      -0.13793502       1.97076630
N      -31.68807825      16.24256761      46.44064191      -1.18467551       0.30751351       0.23524770       2.00557827      -2.73139522      -1.49777690
C      -31.16945375      13.84679151      43.57555152       0.14572280       1.34038313      -0.24007355       0.40205318      -0.32350815      -3.48226114
N      -29.74852606      14.43431453      45.42885454      -0.47528481      -0.22852715       0.14567766       2.32960916       0.56699582       3.28583729
N      -30.26667226      13.07359915      42.92551786       0.95604056       0.03570893      -0.01617611       1.42366935       1.23010591       3.93568023
N      -32.66501306      13.34914187      41.85673934      -0.72155751       0.99426922       0.15615094      -2.54918236      -2.94025428      -4.35871606
O      -33.77851713      17.63542738      45.80072283       1.03622595       1.02303061       0.52092676       1.42555920      -1.09264674      -0.66652964
O      -35.07128869      16.88665942      44.34801250      -0.09826812      -1.26086448       2.34614699      -0.98303063      -0.52796095      -1.39880954
O      -29.73045655      14.72926547      16.71964906       0.87923318       1.12000403       0.57190201      -0.35128994      -0.54798909      -1.77634843
O      -28.67637947      14.06351654      44.95086254       0.95742455      -0.76918303       0.76124519      -1.38720119      -0.39961378      -0.90074860
O      -31.79389225      13.19482266      41.03221920      -0.33420850       0.45237960      -0.16119306       1.40635387       0.23475584      -0.49689526
O      -33.78207290      12.84247164      41.55967142      -1.36904763      -0.07641609       0.03273191       0.21554155       0.97633096       1.45183075
H      -34.65802124      14.23479462      42.18224900      -0.30732819      -0.31097878      -0.03882086      -0.70500768      -0.64399226      -0.37662883
H      -35.39468365      15.43050032      43.25323709       0.00023427      -0.32460346       0.16041808       0.96943465      -0.06218918      -0.08199069
H      -30.80824127      15.86157792      46.96089662      -0.20510836       0.23598049       0.18435121      -2.21618805       1.31470651      -0.89498117
H      -32.39542721      16.96870793      46.57458887      -0.00473037       0.32130919       0.06353594       0.24294399       0.00675518       0.27200220
H      -30.29534455      12.72860565      41.99236905      -0.19037086      -0.39004633      -0.33413043      -0.57940624       0.12543891      -0.18727243
H      -29.39732716      13.03899010      13.50995304      -0.02897524      -0.21632556       0.36085658      -0.26900422      -0.28281171      -0.90264995
C      -63.72148448      -9.71225738      -4.06270304      -0.06409501       0.91293210       0.48429404      -1.21460265      -0.06497915      -4.12801665
C      -64.68267671     -10.76918484      -3.93674176       1.14575908      -0.90064221      -0.08865102      -1.42339126       0.30212817       0.08930523
C      -63.49818440      -9.27379818      -5.42199808      -0.62370056       0.90581573      -0.47759884      -0.68291650      -0.60333483      -0.45905329
N      -63.09573054      -9.23607591      -3.05952416      -1.96644824      -1.00057534      -1.02065777       0.96655593       0.47861934       2.12593262
C      -65.51155914     -11.31009176      -4.99941326       1.21754118      -1.38030461      -0.41080068       2.66631447       2.18786673      -0.45599644
N      -64.92603343     -11.24643623      -2.65875380      -0.64458260       0.05405421      -1.17859747       0.90425210      -5.01562149       1.64590383
C      -65.24404622     -10.74122108      -6.28877773      -0.20648553      -0.35444696       2.52719055      -1.09148686      -1.52583448      -0.77499713
N      -66.38849986     -12.25949617      -4.88661455       0.08903267       1.01652668       0.63669225      -1.44241125      -3.90184432       0.68137258
C      -64.13819953      -9.91321860      -6.57668685       0.16795651      -0.09104788       0.30300386      -0.21978172       0.53080551       5.25805791
N      -66.09143750     -11.15048970      -7.38057897       0.15714241      -0.26353136      -1.15229230      -0.25275186       0.95145579      -1.56937395
N      -63.69699226      -9.59657359      -7.70036580      -1.08854872       0.43974438       1.10063399       1.12384073       2.00572472      -7.25453866
N      -62.67890700      -8.13376689      -5.73188029       0.95623222       1.44767242       0.48939768       0.59470159      -0.04708232       4.63504994
O      -64.23758213     -10.98042122      -1.66498571      -0.12017380      -1.24360271      -1.37049558      -0.30088958       1.48430586      -0.56325827
O      -65.62330749     -12.27848348      -2.54173432      -0.94837398       0.90251086      -0.55699466      -0.79490558       1.37117544       0.08734272
O      -65.82039687     -10.80471222      -8.56924467      -1.45369700      -0.65540609       1.07948738       0.46469432      -0.32210255       1.35089189
O      -67.13177389     -11.73547412      -7.16317479       1.06424163      -0.40676887       0.66381442      -0.04247030      -0.13509211      -0.28079891
O      -61.98412063      -8.08093125      -6.71342384       1.28265621       2.12363333       0.55125073       0.67459994       0.67101185      -1.83476931
O      -62.55986642      -7.29772017      -4.81124665      -0.28235376       0.48486705      -1.35974788      -0.22327059      -0.43462536      -1.13351846
H      -62.35135187      -8.59564296      -3.14187622       0.16929117       0.36471596       0.15469250       0.36697401       0.85929224      -0.47439036
H      -63.31515911      -9.61305181      -2.15704495      -0.45683482       0.03784961       0.09355995      -0.02368198      -0.12354988       0.37334798
H      -66.54104944     -12.93347741      -5.62380017      -0.29673737      -0.07785899      -0.05211265      -0.18076336       1.46318301      -1.14133980