1296
Lattice="-38.17251227474235 7.9004438087613025 51.62378799361762 0.0 16.834040902732703 -0.9452212137895059 0.0 0.0 -29.307591359706628" Properties=species:S:1:pos:R:3:momenta:R:3:forces:R:3 energy=-1487791.6404516902 free_energy=-1487791.6404516902 stress="0.0010155797336780462 0.00020144017766402279 0.00028165085234109125 0.00020144017766402279 0.0023272305955291616 -0.00013806694123231851 0.00028165085234109125 -0.00013806694123231851 0.0003414480465185474" pbc="T T T"
C      -22.68788151      18.59875741      30.87401820      -1.09582442      -0.21467113      -0.35136668      -0.91914718       0.64938734       0.60148288
C      -22.99578063      19.34873954      29.67478746       1.60705987      -0.24387390       0.93035014      -0.10160663      -1.52418395       1.34298000
C      -23.72565118      17.90209184      31.58778418       0.84815161      -0.38220540       0.77243261      -0.84076439       0.09506911      -0.01973177
N      -21.50691908      18.70910867      31.38781185       0.48295313       0.01270370      -0.21162183       1.18894297       0.54873863      -0.99290820
C      -24.24098613      35.89177740      28.09428739       1.11529316      -0.12736922       0.38202606      -1.08123293       2.94261586      -2.24847384
N      -22.05607434      20.32656152      29.29682655      -1.20874188      -0.30235642      -0.94420435       1.16782178       1.59598313      -0.50245450
C      -25.21855013      35.23797405      28.79293619      -0.26127059       1.18464216      -0.47397380      -0.34313498      -1.62282599       1.23315564
N      -24.58523580      36.52567020      26.93578234      -0.11471674      -0.56481796      -0.16533164       1.53316884      -1.28802943       3.09397676
C      -25.02460055      17.99853114      31.06777610      -0.97630826      -0.87727318       1.37195859      -0.30148584      -0.50975393      -0.65636649
N      -26.53515079      34.89478391      28.23745034       1.05468893       0.25300090      -0.71164862       0.30341561       0.21143431      -1.71608972
N      -26.14161792      17.72455697      31.71394755       0.11576322       0.28257692      -0.76027768       2.21317445      -0.06908162       1.67675233
N      -23.58281684      17.18790531      32.82367094      -1.04704046      -0.19087437       1.45741376      -0.58086076      -1.09283147      -0.55702203
O      -21.95228998      20.71830615      28.12786284      -0.22757804      -1.27994304      -0.21052346      -1.01169022      -0.75216976       0.37128129
O      -21.31106546      20.84738362      30.17130665       0.11340276      -0.49709702       1.37433220      -1.09773697      -0.44621980      -1.25486906
O      -26.98757261      33.76400355      -1.04000203      -0.63563584      -1.09775302       1.12963945       0.71778202      -0.66033423       0.81209395
O      -27.11797724      35.76751217      27.64452544       0.35512472       0.52200218      -1.16628922      -0.38535701       1.44408608      -0.20129434
O      -22.44179959      16.95322898      33.19950595       1.56653453       0.73389002       0.83432664      -0.18240459       0.17627361       0.52457830
O      -24.60387870      16.68712199      33.38538401       1.14382641       0.41164753       0.23697118       2.33397491       1.05948336      -0.49960050
H      -21.26051060      18.21191129      32.18489275      -0.33125867       0.01431298      -0.32008497       0.23743609      -1.00210169       1.46386547
H      -20.85126336      19.41911616      31.03948145      -0.31177527       0.47772577      -0.07944822      -0.61360913      -0.81842899       0.41855544
H      -25.36572238      36.36225929      26.38729482      -0.08826331       0.20158946       0.49985134      -1.72589279      -0.43798017      -0.51250568
H      -23.86853251      37.05770726      26.60449918      -0.21902237      -0.26106033       0.07476774       1.93341855       1.57645344      -1.59608261
H      -26.14510183      17.14413928      32.49898495      -0.24083316      -0.09308537      -0.16949145       0.18324099      -0.59659351       1.30969103
H      -26.94523564      17.83589087       1.94517791       0.08747521      -0.16462911      -0.10269405      -3.49251617       0.30939652      -1.76596587
C      -37.99478592      12.09124534      16.87525853      -0.48722853      -0.91384598      -0.39981257      -1.37449192       0.80138019      -0.72643174
C      -37.62654316      11.74493209      18.19893738      -1.06748097      -0.32005274       0.07611266       2.15039629       0.36179508      -0.20840037
C      -39.39683769      12.18448117      16.55843037      -1.35487102       0.26937848       0.87685293       0.52274171      -0.73274044      -0.03977618
N      -37.16471789      12.50070206      15.89275417       0.27887726      -0.40121347      -0.36449942       0.61523874       0.46454834       0.95738150
C      -38.55185943      11.73901145      19.28609000       0.83873060      -1.12739583       0.57937121       1.49495116       0.11268479       1.28594548
N      -36.14884962      11.65718461      18.42442525       1.82659490      -1.51014347       0.97431972       0.25691905      -1.14749163       0.47773709
C      -39.87229143      11.79902769      18.90488899       0.40212097      -0.94642221      -0.60860401      -1.80714361       0.52837176      -0.09575708
N      -38.11554445      11.71365764      20.60850324      -1.82142373      -1.47635176      -0.01360147      -1.03237422      -0.87813580      -5.00798094
C      -40.34556883      12.07166755      17.55633386       1.26841514       1.07355482      -0.79571397      -0.37081859       0.21327138       2.76820383
N      -40.87979567      11.82815568      19.95788357       1.13198688       0.31812316      -0.64442702       0.59303542      -1.88229015       0.04366823
N      -41.62552529      12.38479233      17.46545600       0.32052309      -0.84360166       0.66364533      -0.10169203       0.06027772      -1.95809228
N      -39.86306375      12.36592337      15.22804465       0.45687697      -0.64191431      -0.21749468       2.42079105      -1.37130653      -1.59020310
O      -35.60418810      11.72469415      19.56944169       0.58187155       0.21762065      -0.45423757      -1.66914133       0.33959218      -1.81724880
O      -35.47497629      11.36624220      17.43566363      -0.52718346      -0.97781581       0.66370992      -0.31921851       0.40334138       1.05079180
O      -40.56521745      12.23590242      21.06620454       0.42551325      -1.14110528      -1.29335615      -0.25280011       0.73156181       0.39652308
O      -41.95687882      11.25875355      19.77979607       1.33250196      -1.28686203       0.01422951      -0.05324503       0.65336906      -0.33939566
O      -39.14711139      12.03519402      14.27207974       1.08971724       0.22002954       0.45000261       1.38234431      -0.17072795       0.44555980
O      -40.95496574      12.73667171      14.96220416      -0.28946485       1.87921167       0.66351147      -3.40775739       1.57563323       0.65036412
H      -37.60136716      12.98954397      15.10545972       0.03181505      -0.05809575       0.07776800       0.67946034      -0.54856694       0.67469711
H      -36.28142546      12.86496476      16.26523093      -0.05175928       0.27910687       0.12538718      -0.48450842      -0.35810997      -1.02967482
H      -38.81421131      12.01488257      21.21409048      -0.04755807      -0.29717864      -0.18094194      -0.27405302       0.54125546       1.71610258
H      -37.13394057      11.76399856      20.58644018      -0.22163883       0.19224732      -0.19252826       1.30306456       0.34105138       1.19150594
H      -42.05077954      12.70230676      16.61675142       0.17729053      -0.02350738       0.15327017       0.45002208       0.03954949      -0.47036860
H      -42.27987965      12.21338315      18.16560187      -0.74241873      -0.25694802       0.51784846      -0.52883935      -0.45952535       1.29616205
C      -39.32681137       5.22327793       5.64673539       1.04707719      -1.69465653       1.58712033       2.66990219       1.85329359       1.40851996
C      -38.44171996       6.38159168       5.92474669       0.45360599       0.69162659      -0.13053356       0.03734765      -0.37102802       0.44694991
C      -40.70403602       5.43244156       5.89888159      -0.70901449       0.18273041      -0.37481292       2.37535971      -0.73659127      -0.45244959
N      -38.77381034       4.03348543       5.34664032       0.85041600       0.74957877      -0.88357953      -1.32924815       1.19231458      -0.19494289
C      -38.91397766      24.47940526       5.34597651       0.28964848       0.57297240       0.31492146      -0.11972584       2.26385422      -0.71533843
N      -36.94963086       6.20349261       6.19379449      -0.98986661      -1.22558858      -0.25340583      -1.65043531       3.36038603      -2.98015972
C      -40.35427434      24.65999773       5.25965441      -0.75339087       0.68742220       1.05503802       1.76114445      -0.95092739      -0.47461710
N      -38.05260355      25.61068816       5.66811882       0.23291222       0.64787595      -0.79641507      -4.35398898      -1.65961104       0.47515031
C      -41.22868352       6.68344579       6.08731608       0.82102790       0.47648154       0.25184504       2.22524856       2.59856489       0.83752305
N      -40.87009708      25.98331897       5.05732913      -1.21239926      -0.63223482      -1.83780827       0.02456380      -0.31005245       0.44294129
N      -42.47369294       6.93249777       6.33126300       0.36553404       0.58200421      -0.59173442      -1.24396888       2.79741225      -0.43838247
N      -41.48411611       4.28443738       5.74535575      -0.21316879      -0.01018176       0.46705120      -2.78896443      -1.48766397      -0.58990575
O      -36.16408065       7.04731422       5.68155690      -0.58241543      -1.50246136      -0.11290902      -1.25708918      -1.77964050       1.19002630
O      -36.66079042       5.30715092       6.88403686      -2.13897072      -0.38459791       0.76547131       1.37583142      -2.53608203       1.87800351
O      -41.78243570      26.17362602     -25.05250880      -0.95056963       0.85556155       0.44501914      -0.28069650      -0.38095174       0.02080075
O      -40.36478873      26.90860911       5.66791964      -1.57802711       0.45382292       1.07554180       0.26702802       0.25280474       0.08770179
O      -42.42905390       4.00982673       6.48056565      -0.00491568      -0.90731306       1.50660909       0.11984786       1.12788500       0.76543785
O      -41.26363249       3.56607583       4.78137506      -0.39200448      -0.08936742       0.12242652       0.60148656       0.02103726      -0.38170921
H      -39.50497122       3.41184404       4.98173034      -0.36130936       0.30167434      -0.54458466       1.33250424      -0.46069865      -0.24533545
H      -37.81020983       4.06203337       5.04542304      -0.19126704      -0.05293085      -0.61792114      -0.33109458      -0.54640635       0.07291250
H      -38.59578082      26.50715712       5.70034014       0.28084782      -0.02056378      -0.53133484       0.96738775      -1.33376149      -0.00471516
H      -37.22730966      25.59823303       5.16687903       0.10068149      -0.18098806      -0.26300531       1.83237113      -0.08547695      -0.76004072
H      -43.08969576       6.22263152       6.33253168      -0.15123586       0.15692391      -0.44370945      -2.63378004      -2.82892267       0.01693863
H      -42.83048309       7.82436783     -23.31049788      -0.02152717      -0.15204479      -0.41419201      -0.05758962      -0.44273814       0.43857364
C      -26.43292857      -4.36581399      29.73867900       0.80165032       0.93239640      -0.57287755       2.65444132       4.30298358      -1.87847040
C      -25.56564151      -3.58365379      30.67118658      -0.04578431      -0.03526424       0.25735601       1.55955700      -2.37105875       2.23709371
C      -26.94844381      -5.55523827      30.09190100      -0.91620346      -0.13093114      -0.13044897      -0.11294591      -1.21209241       5.11864641
N      -26.57730791      -3.82539830      28.51961060      -0.44947034      -0.00097771      -0.37608054      -1.07788242      -0.96747764      -1.33684525
C      -25.11790634      -4.20318194      31.97516470      -0.26871189      -1.63427210       0.37340795      -0.55577097       3.91367283      -2.37209311
N      -24.75895808      -2.45619630      30.28930513       0.72742259      -0.45675602      -0.43734756      -2.67755483      -0.52405923       0.61968080
C      -25.82917572      -5.32241960      32.31230159      -0.49889416      -0.76808067       0.21304464      -3.28195569      -2.86758318       1.51957555
N      -24.28993400      -3.66791672      32.86063054       0.57360114      -0.41811274      -0.32710700      -0.32619524      -1.57290105       0.21065612
C      -26.86281721      -5.87200243      31.53158773      -1.41774569      -0.35385990       1.49321899      -1.20680654      -3.55267255      -3.84547049
N      -25.81874595      -5.86335232      33.62301240       0.51347103       0.67958713      -0.48141920       1.57864859      -0.70678203       2.07934170
N      -27.63211455      -6.95836897      31.88981168      -0.65649480       0.25890534       0.32947493      -0.67381700       0.48504506      -1.38953292
N      -27.74463665      -6.39288920      29.28712410       0.65358149       0.21953961       1.00409738      -1.88199873       5.61188361      -3.57125639
O      -24.20540849      -1.80282619      31.13931890       0.65812570       0.07582016      -0.48668968       1.44027861       0.44066535       1.51719569
O      -24.81336234      -2.04744360      29.16420694      -1.42900303       0.49114741       1.56772706       0.22866466       0.44280918      -2.92019348
O      -24.85956321      -5.50223623      34.35011131      -1.49563604       0.75393418       0.96669174      -0.75672983      -0.82234431       0.22454729
O      -26.60924602      -6.70718227      34.06763889       0.59567556      -1.21458541      -0.69555820       0.81179177       1.33928194      -0.46866762
O      -28.52858462      -5.78122134      28.47897021      -0.09339105      -0.64189350      -0.30865509       0.95510288      -0.77594907       1.31450447
O      -27.57093507      -7.53497880      29.22287244       0.89627016       0.43740870      -0.47771310       0.51713201      -4.67369182       0.63854281
H      -27.14916832      -4.32504454      27.80134198      -0.44539941      -0.43106648       0.15287894       0.73617608       0.70853178       1.41692323
H      -25.99745549      -3.04202683      28.23076950      -0.16605484      -0.25525544       0.08223170      -0.20763869      -0.35989462       0.39681869
H      -24.20536241      -4.35839409      33.69451241       0.08474673      -0.24703528      -0.63542259       0.41152953       2.17128385      -1.25644733
H      -23.83092956      -2.79837716      32.62317314       0.07639148       0.15338015       0.18689009      -0.07334538      -0.34753795       0.19304938
H      -28.30212304      -7.50202099      31.26236185       0.11986880      -0.06416032       0.10073602       1.73204718       1.86127134       0.99083902
H      -27.79333954      -7.05142009      32.86277965       0.21078008       0.01737949       0.41591636      -0.02907153      -0.47111056       0.62988116
C      -25.36724474      -6.78265399       9.88600137      -0.20498511       1.11186134      -0.29083936      -0.20846043       0.63089339       0.78491901
C      -24.54903777      -5.82440093      10.60549646      -0.67727122       1.00345128       0.51664092       0.39459103       0.68279862       0.18412589
C      -26.60528763      -6.31507195       9.42251484       0.20553036       0.65690934      -0.53117539      -0.19110178       0.65397812      -1.73836050
N      -25.04469621      -8.05757963       9.75980930       0.83392446      -0.36251907      -0.01204389       0.57785174      -0.64791555       0.00150552
C      -24.95810186      12.42606828       9.81393672       0.58594220       0.32484224       0.35682493       0.50650284      -0.83032929      -0.30641175
N      -23.24017543      -6.26445614      11.20887781       0.13814627      -1.18653787       1.67478812      -3.52811033      -0.76417233      -0.11078007
C      -26.16909157      12.90915124       9.14937597       2.90171925       0.79861639       0.44462698       1.27814741      -3.31890440       1.20847447
N      -24.32473898      13.32136184      10.58532894       0.31893243      -0.22672594       0.35637290       0.35670518      -0.48355337      -0.50533088
C      -27.04010488      -4.98298539       9.61964038      -0.91661650       0.38859253      -0.19269223      -2.67891082       1.65991260      -0.71236464
N      -26.54505071      14.25255373       9.33376485       0.30178548      -1.01020588      -0.66921164      -1.27065561       0.91605869      -2.42807699
N      -28.41351239      -4.77027561       9.32147015       1.04814605       1.01794392      -0.90275687       5.26805890      -3.62934588      -0.56589843
N      -27.23347675      -7.14272726       8.31174933      -0.05904338      -0.45889558      -0.59279709      -0.46460774       0.27741771      -0.58208430
O      -22.59166478      -5.46545006      11.78021015      -0.34223543      -0.59112723      -1.00145868       1.89264882       2.70193772       0.97113015
O      -22.96485962      -7.45541170      11.32447972       0.85150762       0.24787518      -0.23677884      -0.18307494      -1.26930808      -0.96475231
O      -25.75469802      15.19514280     -19.88952550      -1.93110672       0.12566066      -0.00145112       0.71898610      -0.79884566       0.83900352
O      -27.72410512      14.49641313       9.10730926      -0.63764232      -1.35215491      -0.53332973      -1.05614792      -0.11615550       0.47335310
O      -27.67209744      -6.69361649       7.24611760      -0.82857628      -0.85748737       0.90919770       0.65919901       0.61425577       2.04466049
O      -27.26158084      -8.34811531       8.50525883       1.08861398      -0.40898600       0.83751140      -0.03902103      -0.70421151       0.34768178
H      -25.59284702      -8.82952095       9.42067077       0.61430323      -0.03792459      -0.14235061      -0.68434788       0.91457816      -0.31558966
H      -24.29855277      -8.34642814      10.31755077      -0.06255448      -0.08637939      -0.07643026       1.49405856      -0.20812271       0.68873501
H      -24.57608857      14.27892469      10.34043204      -0.07458175       0.29088966      -0.03165449       0.36550123      -0.09439496       0.51182458
H      -23.44932844      13.10528353      11.05020118       0.03486421       0.53118566       0.29876031      -0.40588167      -0.09337792      -0.43782525
H      -28.83758249      -5.66897161       9.16850715       0.18291143      -0.17260792      -0.30607440      -0.98071005       0.74358143      -0.06527287
H      -28.76961576      -3.95001102     -19.68592736       0.04190544      -0.22128025       0.11546295      -1.84341301       2.79698740       0.93880272
C       -9.91659075       6.54176891      -4.72393212      -0.58357786      -1.82785828      -0.22232176      -0.23786668       0.51374966       1.52460858
C       -9.69326840       5.70786069      -5.88138719      -0.99876479       0.54873435      -0.93823281      -2.40831376       1.03344947       1.77425338
C       -8.82178515       7.01036189      -3.91884690       0.46187814      -0.20213377       0.46143824      -0.99627188      -1.23626227      -0.60279809
N      -11.10599520       7.00749838      -4.31015864      -0.19093052      -0.30872811      -0.37407696      -1.11584132      -3.49527736      -2.90276584
C       -8.48290187       5.96675574      -6.55122717       0.54552515      -0.32581434      -0.73734561      -0.01362474      -0.94768085       0.64753871
N      -10.84159763       4.98258306      -6.46995067       0.74522109       0.02891577       0.65075666       2.62196476       2.14115587       2.49594201
C       -7.40640164       6.49744376      -5.85026427       0.02446632      -0.11099541       0.43488597      -0.57345773       0.23932189       1.54359399
N       -8.35626145       5.56471239      -7.77093417      -0.09334566      -0.07971730      -0.59835892       0.62792681      -0.85905768      -3.18205653
C       -7.52968633       6.87692773      -4.46551543      -0.66075386       0.20071251       0.73230309       0.26894436       2.66659011      -0.59664026
N       -6.17579121       6.51799171      -6.57863409       0.19748268       0.08948639      -0.19594519      -0.73339546      -0.38372422       2.07564042
N       -6.52117173       7.53609023      -3.85796701       1.50567701      -0.54561420       0.73349673       1.87990945      -2.77163482      -0.92132170
N       -9.01690294       7.46856171      -2.54290500       0.55784992       0.08789454       1.93839613       1.35056510       0.90096991       0.98042283
O      -10.61193297       4.37758538      -7.47307939      -0.39823541       0.63909075      -0.97674265      -0.33499831      -1.67749020      -2.13578932
O      -11.89953964       4.93258960      -5.87891475       0.42733257       0.60682467      -0.38404418      -0.87699045       0.42611071       0.50702054
O       -6.21287793       6.89292565      -7.71043941      -1.00407194      -0.52804533      -0.75774326       1.01829749       0.78277756      -1.57736166
O       -5.19171983       6.09268293      -5.98986769       0.24651495       0.91314928       0.38218174       0.64849320       0.54750914      -0.01513777
O       -8.00719720       8.05061318      -2.04869053       1.04500967       0.98220105       0.04511485      -1.93928008      -0.66493017       0.12848848
O      -10.02369225       7.31972534      -1.85903258      -0.27922966      -0.36142925       0.47112146       0.59177569      -0.00143799      -1.58736644
H      -11.11946680       7.77765841      -3.71806639       0.27123934      -0.04155702      -0.02284355      -0.60820837       0.80740499       1.25175679
H      -11.91413634       6.42734228      -4.65358571       0.02106241       0.18529964      -0.30314462       0.89681824       1.55693859       0.84054775
H       -7.59269543       5.65875753      -8.40523414      -0.06264735       0.18378518      -0.42824887       0.78531275       0.61058047       0.60140557
H       -9.00279789       4.96214635      -8.18212775      -0.52920107       0.08655061      -0.31635947      -1.44683410      -0.57228449      -0.11602774
H       -6.57576768       7.65615407      -2.85556343      -0.08494626       0.28753632      -0.04365392      -0.11558731       0.39576914      -0.42941361
H       -5.65201830       7.09922751      -4.14845416       0.35397468      -0.05887084      -0.00871226       0.21406934       0.82240420       0.08972820
C      -18.48818016      32.07569780      35.31669867       0.55165521       1.82662543      -0.48438282      -3.51074779      -0.86912124      -0.60925765
C      -18.47962168      30.64273705      35.10872910      -0.70455677      -0.49951978       0.77300210       0.49123634      -1.13928880       0.91855017
C      -19.82554620      32.65956695      35.26804529      -1.60255148       0.22255836      -0.97601939       1.76747400       0.84609531       1.19354242
N      -17.39322136      32.75573990      35.37767308       1.62729343      -0.02184923       0.20687245       1.01567866       0.18322705       0.34581396
C      -19.61833631      29.78043151      35.30204998       1.39546729       0.10613655       1.65793836      -0.28573072       2.90266177      -1.62100922
N      -17.26958491      29.98464945      34.75358503      -0.19599010      -0.04409828       0.32676753       0.87223204       1.00175247      -2.38041331
C      -20.87391826      30.45655678      35.39502945       0.64811779       0.70714392      -0.21966230      -0.39394376       1.32967010      -0.29202713
N      -19.56671579      28.50929150      35.10358991       1.22826710       0.79673582       0.17169883       1.66255472      -0.49706984       0.43776975
C      -21.03904371      31.89518487      35.28904450      -0.87960010      -0.38649512      -0.35163288       2.77373273       0.34748665       0.64401713
N      -22.01191766      29.72070488      35.65843110      -0.05974649      -0.76033601      -0.38394440      -0.71229586      -1.68878191       2.59800191
N      -22.11978007      32.61786543      35.37964144       1.61188339      -0.32426742       1.03729990       0.55270338      -0.97455903       0.13861514
N      -19.92884199      34.11242310      35.65060002      -1.27241076       0.92551725      -1.20872293       0.34341927      -1.54858682      -1.29407605
O      -17.26143886      28.87656301      34.20310887      -0.80914210      -0.70911855      -0.42275525      -0.16939196      -0.25273810       0.86954106
O      -16.22157726      30.64600765      34.71608776      -0.41398873      -0.55602143       0.38229776       0.17806735      -0.20999241       0.84851946
O      -23.12829919      30.24018444       6.31076118       0.47641979      -0.47070204       0.56795982       0.31453277      -0.33076778      -0.59502845
O      -21.85348801      28.56701094      36.17050111      -0.85354606       0.28372881      -0.71253215      -0.80977006       1.23388746      -1.29166781
O      -20.89910077      34.74252914      35.21962043       0.18109378      -0.01922485       1.30210363       0.43251770       0.69281533       0.46226906
O      -19.05623363      34.63603678      36.30237690      -0.84473589      -1.39860362      -0.57911085       0.35774407       0.21739175       0.12582256
H      -17.35028799      33.74388757      35.44140054      -0.15611745       0.16797549       0.01930148      -0.21166131       0.48466315       0.26743722
H      -16.58375232      32.15858044      35.40444077      -0.26928727       0.04164064       0.26059888       0.73782688       0.32481636      -0.25472260
H      -20.38135300      27.99426005      35.20998632      -0.00501823       0.00770418      -0.04174042      -1.46262262      -1.09603964       0.21390887
H      -18.68597174      28.12268443      34.81205000       0.01703853       0.01650660      -0.01273316      -0.07263910      -0.27924401      -0.10429293
H      -21.94079292      33.63153606      35.43678650      -0.23752929      -0.12841574       0.02243568      -1.35406290      -0.60933103      -0.60217996
H      -22.87882115      32.01651426       5.96511051      -0.23327831       0.37103647       0.10851800      -2.40223596       0.01648784       0.14647959
C      -46.11503705      29.84188908      36.57752107       1.09785605       0.03175827       0.88880177      -0.12603893      -0.38547755      -1.31006663
C      -47.20873107      30.60095513      36.13968500      -1.02897517       0.20083076      -0.86900815       0.23642918      -0.72966991      -0.03147587
C      -46.05238642      28.49027562      36.14320376       1.46177922      -0.45707932      -0.37251446      -1.58796062      -3.65819079      -1.16870798
N      -45.08849221      30.32927937      37.22453515       0.33960773       0.90207249       1.40705434      -0.43955334       0.74374646       0.77454822
C      -48.22287768      30.09968256      35.32190760      -0.71525856       1.22070419       0.19024706      -1.40293313       2.78698348       0.45177781
N      -47.09349517      31.99945348      36.36163463      -0.48861614       0.68657217      -1.01798717      -0.97950912      -1.44013311       0.18108274
C      -48.20248137      28.75814552      35.01592576      -0.01117741       0.08927975       1.68903882      -0.12021202      -2.45302583      -0.58286970
N      -49.17953672      30.97004969      34.84185749      -0.50757665       0.44687554       0.56310620       4.51530539       4.79256436       4.66328563
C      -47.07005890      27.87411846      35.22369143      -0.50557196       0.73366170      -0.79826330      -0.00500882       3.67254204       0.87501256
N      -49.39418977      28.26426957      34.37381803       0.01296504      -1.91964934      -0.14310332       1.62246354       0.31151050      -0.76639279
N      -46.92776944      26.77584322      34.52520862       0.08402914       1.01312310       0.10901119       0.01566039      -2.69523575       0.58890143
N      -45.15370597      27.53846645      36.71694605       0.05121735       0.86633651       0.42120017       0.54424929       0.89922313       0.76412085
O      -46.07484907      32.49899415      36.03470371      -1.38285692       0.37289860       0.09141924       2.70936228       1.74797041      -0.96007063
O      -48.00164996      32.58968160      36.88184257      -0.43943981      -0.35072870      -0.12916235      -1.85872887       1.13809346       0.71195052
O      -50.38023856      28.94156347      34.40919777      -0.62526712      -0.91917662      -0.24812131      -2.13231385       0.38357568       0.45140476
O      -49.37377606      27.23163502      33.74365036      -1.35192272      -0.60523882       0.43870810       0.43043763      -1.87997016      -0.33620853
O      -44.34976945      27.95645584      37.56513778       0.61324133       0.14962237       1.29026300       0.12049222      -0.20321885      -0.10552711
O      -45.18035012      26.33875250      36.45665387      -1.20128720      -0.69738649      -0.01524746      -0.25043680      -0.05197360      -0.69372382
H      -44.47310842      29.59359414      37.50673348       0.37202014       0.15262544      -0.08730811       1.07534569       0.06079569       0.47165589
H      -44.94457402      31.31454413      37.32410505       0.00825335       0.18428074       0.26630276       0.05108711      -0.08674729       0.02704398
H      -49.87649798      30.69927238      34.30610176      -0.27885447       0.07500724      -0.04468109      -3.54316022      -1.66025316      -2.61575463