1296
Lattice="-47.36036312109357 8.422751910030307 23.615164668105283 0.0 15.330810337840601 7.628655431439259 0.0 0.0 -26.92803843111038" Properties=species:S:1:pos:R:3:momenta:R:3:forces:R:3 energy=-1487787.1407263258 free_energy=-1487787.1407263258 stress="0.0031555829031008806 -0.0011363346219905408 -2.7751989156158413e-05 -0.0011363346219905408 0.000256503400345379 0.002474060572865917 -2.7751989156158413e-05 0.002474060572865917 0.0007890990833325027" pbc="T T T"
C      -27.76911739       8.07957897       9.94470559       0.29954504       0.58360952      -0.79421095       0.98675373       1.59839105      -1.93292625
C      -27.82651350       8.22668678      11.33609079       0.49451065       0.20658584      -0.07015151      -0.35304704      -0.25991425      -0.28144880
C      -28.44333654       6.99335779       9.34765886      -0.69868789      -0.79864564       0.44210312       0.84659143       2.12149356      -2.15586138
N      -27.11691018       8.97559636       9.11160650       0.84392965      -1.41061056       0.48472145      -0.41088209       0.29353643       5.58799116
C      -28.22438101      22.39246869      19.72368997       0.31784339       1.05611255      -0.94168696       1.20359176       1.55441350      -1.43700980
N      -27.39081491       9.42890630      12.00109165       0.88857699       1.12255755       1.05300791       0.06090774      -2.04945383       0.64544496
C      -28.82009444      21.31212188      19.07288157       1.39727284      -0.10457205       0.19979453      -0.85182005       0.10055892       0.50498791
N      -27.87064140      22.27788950      20.95475723       1.20358626      -0.99729334      -0.14535339       0.31337692      -0.08726824       2.23952853
C      -29.15261016       6.10577464      10.05399512      -0.89449970       0.48254892       1.13924928      -1.37633664      -3.73150596       0.79150814
N      -29.19385610      20.10644178      19.80604553      -0.79552141      -1.07212508      -0.09520912       0.16615776       1.24817851      -4.06153122
N      -29.92226898       5.16513498       9.46961343       0.05633973      -0.81503506      -0.49147890      -0.31422237       0.30464652      -0.24665115
N      -28.53125999       6.92113683       7.90152643      -2.43025538      -0.69289146       1.58331819       1.48411890       0.96888088      -1.60090251
O      -26.82398196      10.30893072      11.39521583      -0.34537393      -0.16968172      -1.33241155       0.32399230       1.27024448      -1.23576685
O      -27.56329625       9.48181884      13.20335063      -0.74087019       0.43792199       0.31555189      -0.23788457       0.21396163       0.50157598
O      -30.00297145      19.42606301      -7.73678533      -1.40697725       1.32297935      -0.74174732      -1.66042382      -1.76294665       1.36954442
O      -28.63655062      19.67809177      20.75561492       0.22400801       0.02457856       1.31097204       1.41550965      -0.05466729       2.89683797
O      -27.55784986       7.37084384       7.24012292       0.40332941       0.12187530      -0.34448967      -2.01826527      -1.14162914       0.91905930
O      -29.52167925       6.45363393       7.34324053      -0.88912731       0.46243827       2.19275048       0.64027640       0.38544235       0.25533576
H      -27.34402537       8.94977675       8.19865936       0.14202025      -0.25293236      -0.03910314      -0.47735222      -0.08381742      -3.50118693
H      -26.98314530       9.86897599       9.57835108      -0.14506279      -0.10264193       0.16584546       0.34471524      -0.36650554      -0.37409427
H      -28.03671897      21.37766442      21.27674256       0.04851274      -0.03658325      -0.07730786      -0.09038937      -1.53151550       1.40786875
H      -27.41820714      22.89670798      21.59932867      -0.05824087      -0.18313175       0.11064726      -0.19207563       0.56410058      -0.65678469
H      -30.28992631       5.27958839       8.51694225      -0.17240490       0.12174914      -0.05260416       0.65989910       0.14979532       1.11654415
H      -30.29057911       4.52978214     -16.74244979       0.20035979      -0.00502173       0.10280322      -0.28564247       0.21535959      -1.19577302
C      -51.99906621      18.43734047       2.08739108      -0.18113911      -0.65234541      -0.03807242      -1.33393866      -2.23044028       2.35085440
C      -51.49783389      17.20704900       1.50264824       0.11475620      -0.16046696      -0.35351713      -0.80785605      -0.49657548       0.92375236
C      -52.67533569      18.34105491       3.32781125       0.04508062       0.81525911       0.31355918       2.02612092       0.08741236      -0.52184999
N      -51.97616954      19.60829820       1.51181414      -0.39315220      -2.34496695      -1.60418217       0.94004054       0.82522714      -2.84438482
C      -51.60878672      15.88127084       2.20552053       0.34066700      -0.44095082       1.29802216      -1.58633406       3.34873600      -0.71901560
N      -51.11342429      17.35373333       0.08497683      -0.36037260      -1.20027923      -1.02273564       1.42229794      -2.21326028       0.94309697
C      -52.31955373      15.92231907       3.51851304       1.01221842       0.28084509      -0.01543650       3.15640431      -3.22503080      -4.10086972
N      -51.34856672      14.74082107       1.57314784      -0.32493386      -0.60383948       0.28607883       1.31694078      -0.83457759      -0.90472390
C      -52.71675588      17.10473278       4.06033953       0.79665137      -0.34765385      -0.22406550      -1.47060549       3.03231491       0.67457292
N      -52.32665022      14.58662368       4.19326929      -1.32925152      -1.14807833       1.14460171      -0.24598804       3.39231642       1.07041233
N      -53.34480082      17.27563744       5.23588593      -0.27494147      -1.24934781      -0.82959020      -0.74228361      -0.72704375       1.20318633
N      -53.03528814      19.71255861       4.01706387       0.88918336       0.25699997      -1.21825385      -0.61464343      -0.69339172       1.59666363
O      -50.13146848      16.72854493      -0.31189349       0.70487476      -0.20979947       0.34189103      -0.36728700      -0.28668072       0.72518678
O      -51.76783286      18.03125018      -0.66744288       0.22157428       0.26796942      -0.11063049      -1.00347715       1.13173745      -0.08585762
O      -52.44288375      14.67250241       5.37458556      -0.81615984      -0.60329149       0.60635719      -0.87378182       0.96828137       3.52166777
O      -52.18074903      13.52118336       3.70679230      -0.97744254      -0.32576515      -0.21446785       0.45768775      -2.36635157      -2.95458646
O      -52.19383777      20.53691009       4.39716747       0.42557927       0.21813905       0.38782557      -0.89335986      -1.75494947      -1.52509838
O      -54.24196624      19.83515899       4.30560857      -1.03005501      -0.90516389       0.37217994       1.57106795      -0.06379528      -0.64312733
H      -51.87917588      19.50734643       0.49468048       0.12140371      -0.41251247      -0.17740416       0.01669582       1.07851830       0.74598360
H      -52.13275986      20.48248935       1.97740311       0.14488147       0.06981079       0.06090496      -0.05935850      -0.15390031      -0.17622360
H      -51.24545284      13.88664892       2.09407438      -0.17773749       0.13879338      -0.01579692      -0.55685237       0.14480492       0.38477947
H      -50.83155422      14.65078812       0.69321408       0.31692489      -0.20852830      -0.08748299      -0.38414786       1.10598008       0.55487186
H      -54.03561676      18.04629174       5.13333623       0.12872952      -0.20169473      -0.13007893       0.51904801      -1.26016735       1.32207362
H      -53.40843405      16.45799674       5.86762849      -0.07980824      -0.02458345       0.27347426      -0.32123529       1.09762266      -0.80495802
C      -45.35333249      13.18815805     -27.31632547      -0.40490159       0.24654475      -0.41484183      -0.74857040       1.36911459      -1.09262378
C      -45.53910404      11.85042545     -27.10811825       0.29513389      -0.14576833       0.63499396      -0.18984512      -1.99876832      -0.14711825
C      -46.47762867      13.97470269     -27.76663365      -0.36232740      -0.11312044      -0.32832120      -0.05474796      -1.37126604      -1.66671182
N      -44.19837568      13.78100571     -27.06807015      -1.08710599       0.69294939      -0.10746720       2.58715769       1.49867346      -0.04405799
C      -46.70562610      26.52541316     -19.87657314       1.16087985      -0.39393094      -0.61247450      -0.46584642       0.21946067       0.72369018
N      -44.40347096      10.98538825     -26.58640812      -0.07176492      -0.23887942      -0.60231317      -1.33561076       3.69760176      -1.88087029
C      -47.63472267      27.21809926     -20.69771494       0.10193406      -0.78976586      -0.06198586      -2.18333603       1.31854960       0.29401145
N      -46.96533493      25.30249932     -19.42883804      -0.41280934      -1.30646255      -0.28549099       2.46227116       0.60576321      -0.05346245
C      -47.70224053      13.33154156     -28.29590830       0.47187548      -1.02306702       0.80652461       2.00037194       2.02142288      -0.90980769
N      -48.87916828      26.64804136     -21.14689710      -0.14668517      -0.02689727      -0.21503148      -1.49195008      -1.90135872      -1.43083239
N      -48.67132721      14.11531063     -28.87805465       1.13676943      -0.57343989      -0.56448467       4.16446903       2.26556500       3.24820007
N      -46.19315657      15.36442679     -28.16893238       0.14128473       0.49777944      -0.06051426      -2.51775866       1.40991857       2.65082278
O      -43.39649554      11.11931404     -27.28988142      -0.50741011      -0.19805296      -1.09089649      -0.24115680      -1.52939794       1.95612741
O      -44.60762827      10.45165978     -25.52674535       1.02353026      -0.75004730       0.49491041       1.21986924      -1.14135331       0.11449896
O      -49.29972991      25.49838542     -47.74442321       1.58985521      -0.48419853      -0.73294967       1.59246295       2.34654872      -0.07735244
O      -49.52009291      27.29892287     -22.01956107      -0.21105053       0.03731923      -0.57048220       0.74519401      -1.40174543       1.44219445
O      -45.19643630      15.79999187     -28.67306535       0.59069549       0.18602576      -0.23851565       2.04860050      -1.14240587      -1.10582976
O      -47.05961899      16.17864710     -27.79728153      -0.57541895      -0.64959530       0.45267771      -0.36281334      -0.74932638      -0.45628017
H      -43.90277864      14.57746523     -27.64819326      -0.56000284       0.21228063      -0.15757973      -0.72763369      -0.64154778       0.68523588
H      -43.38022597      13.27178825     -26.73175544       0.08492472      -0.20076802       0.06017891      -0.83689340      -0.12203735      -0.28310830
H      -47.87437064      25.01410410     -19.45455182       0.19637044      -0.35061810       0.23524401      -2.55942732      -1.15270982      -0.29301786
H      -46.40050129      25.01046326     -18.65858751       0.20509781      -0.11113928      -0.14525143      -0.00976550      -0.48701159       0.18066262
H      -48.53772271      15.16541823     -28.73647530       0.10159727       0.05872331       0.06582694      -0.66171468      -1.99321679      -0.32337210
H      -49.34630473      13.64962785     -56.29685757      -0.19927669      -0.19663407       0.10891026      -2.07813167      -0.91611782      -1.47628209
C      -36.48861499      -1.32422081      10.82252750      -1.68609057      -0.63687474      -0.44456650      -0.21140864      -1.32959734      -1.04020297
C      -35.51619425      -0.34361590      11.11445067       0.57737545       0.01303473       0.09368358      -0.81535652      -1.77481701       3.33275330
C      -36.77396078      -1.68825296       9.38905924       0.60212488       1.26859324       0.02964615       1.41935125       1.37648728       3.20075353
N      -36.97217339      -2.04385058      11.81377763      -1.35729579      -0.02906680      -0.10773798       1.16454254       1.00416432       2.40997353
C      -35.00728838       0.41127423      10.14010785      -0.18401844      -0.62841501       0.26215057       0.74693001       0.57863411      -2.79856452
N      -35.00056321      -0.15346866      12.50408960       0.77206660      -0.16109189      -0.62608901      -0.57434394       0.64508780      -0.44906811
C      -35.41615854       0.20941206       8.74452205      -0.54304744       0.58999966       0.19632101       0.03209156      -0.78991655       1.20606168
N      -34.05704688       1.27180030      10.35117267       1.02697643      -1.37961691       0.55409111       0.36182655       1.12213024      -1.72435033
C      -36.01539038      -1.03680515       8.33591663      -0.09071515       1.56470664       0.96722024      -1.73308229      -0.32027413       1.93180662
N      -35.09796751       1.12132735       7.75330707      -2.33133871      -0.31251935       0.40667718      -1.07250108      -1.89299604      -1.14199462
N      -36.08131217      -1.57526292       7.14564301      -1.42162702       1.68641268       1.00862529       1.13642823       1.27724584      -0.48628674
N      -37.67163643      -2.72936579       9.19631931       0.55689114       0.15139564      -0.47116139       1.07900005      -0.19534923      -2.73289473
O      -35.67551328      -0.52027094      13.47647729      -0.27953606      -1.20416872       1.18768874       0.31785396      -0.12503393      -0.65187638
O      -33.95154541       0.46871780      12.66163886      -0.55130456      -0.43857864      -0.05473881      -0.47389099      -1.04667332       0.29430867
O      -34.62827642       2.20600816       7.90407428      -1.09648748       0.61377882       0.61859573       1.44387078       2.45784762       1.52917573
O      -35.41181307       0.74769826       6.62978129       0.30965895       1.42395441       1.23011684      -0.18077081      -0.06296978      -2.06851295
O      -38.43904839      -3.07713965      10.04657990       1.72141678       0.09990658       1.00090372      -1.28472616      -0.64471672       1.23833210
O      -37.65523305      -3.29197134       8.07263418       2.67014898       0.35494014       0.06501808      -0.33699154      -0.29480054       0.56194329
H      -37.64129929      -2.72345860      11.61416604      -0.01704559      -0.05295754       0.20914646      -1.13703885      -1.07320797      -0.30982861
H      -36.68147951      -1.85555982      12.82697624      -0.37970358      -0.37931970      -0.02830608      -0.47509288       0.11360885      -2.23487499
H      -33.87518779       1.70006695       9.47555607       0.02581406       0.03680242      -0.21866670       1.12914482       1.32233972      -0.17262546
H      -33.48062695       1.31700983      11.15407468       0.09193806       0.45994273       0.11793681      -0.00942194       0.10994575       0.67616060
H      -36.50259961      -2.49760440       7.11731360      -0.10059592       0.15541385      -0.24422016      -0.25604324       0.46890804      -0.37946307
H      -35.75382408      -0.91845430       6.42708263       0.12953547      -0.03595770      -0.17129227      -0.23219420      -1.05777219       0.06591111
C      -20.42328159       5.33346693       1.60938604       0.11466649      -0.57074171      -1.61909076       0.66829795      -2.85724483      -1.31490602
C      -21.77263925       5.37366841       1.92195679       1.13263759       1.06358026       0.43750851      -2.94734484       2.40671513       0.56288792
C      -19.49808648       4.81046860       2.60408310       0.20965145       1.03742852      -0.25640280       0.68290256       0.46384725      -0.05139988
N      -20.06358275       5.37057664       0.33456053      -0.37899942      -0.65300520       0.79878338       3.83363732      -0.74716974      -0.75155351
C      -22.22597152      20.49124002      10.86431290       0.16214009      -0.31701877       0.04936945       0.43395720      -1.51580668       1.45198519
N      -22.82669798       5.84026583       0.99822270       0.61335893       0.61644950       0.54836213      -1.45937706       0.47724535      -1.94627838
C      -21.30356049      20.03068377      11.82325245       0.78778443      -0.51306335       0.76499671       0.17275442       0.91090089      -0.70627424
N      -23.49554922      20.44455594      11.18481056      -1.07219141       0.26466415       1.59450682      -2.01908850       0.24967786      -0.22400476
C      -19.89676072       4.55315521       3.96137843       2.36576999       0.11298610       0.34672111      -1.94481314       1.03876964      -0.42788724
N      -21.84408671      19.54203891      13.07159453      -0.81572192       0.07275690       0.12977036      -0.38978093       0.79593027       2.41114396
N      -19.11745079       4.30857858       4.98648053      -0.17879021       0.55737788      -0.38347187       0.52094133      -0.99479322       1.26974052
N      -18.16523185       4.40628260       2.25802764       0.61031816      -0.21799981       0.16617216       1.37802118      -0.63257553      -1.73607823
O      -22.57056804       5.76845360      -0.20804232      -0.66122429       1.55425259      -0.69253091       0.32793996       0.03376123       0.82983947
O      -23.98729206       6.27477730       1.29774144       0.60277585      -0.76162850       1.82212337       3.06454027      -1.01053018       0.69842372
O      -21.51504064      18.40259325     -13.62043375      -0.67404027      -1.03632124       0.54796127      -0.19448885      -1.00699875       0.18299692
O      -22.51968665      20.21715894      13.89535068       0.52688910      -0.25980337       1.38009466       0.75635783      -0.69730813      -2.56461027
O      -17.86521060       4.09121607       1.03774367       0.53320605      -0.41489809       0.38707495      -0.87345084       1.05498389       2.58584171
O      -17.30707837       4.29329220       3.13575219      -0.01932274       0.65608144      -0.48248296      -1.02631150       0.26155112      -0.83579726
H      -19.05988710       4.95625576       0.15762639       0.22035444       0.29758126      -0.33704604      -2.84255022       1.26420163       0.41126509
H      -20.72319246       5.50165307      -0.42075409      -0.03624610       0.19011946      -0.27279438      -0.00233247       0.25618300       0.62047914
H      -23.89001527      20.15376465      12.03853230       0.08709415      -0.25569645      -0.26612791       0.73535261      -0.31398549       1.48315967
H      -24.25036456      20.81247367      10.64905406       0.03737245      -0.34945938       0.17523488       0.43299675       0.44630793      -1.11081391
H      -18.10571149       4.29361587       4.86208265       0.23885082      -0.27608755       0.40651321      -0.58448236      -0.21138697       0.00662574
H      -19.55968941       3.91435823     -21.08834806       0.11564547      -0.11688806      -0.58753087       0.87204591       0.55364016      -0.83076090
C       -5.86268062      19.18955046       4.94717636       1.64572949       0.56070700      -0.28702655      -3.65347229       2.33944199       2.21952704
C       -7.24258284      18.54357308       5.02044913      -0.64866344      -0.06182768       0.19455035       1.26064861       0.41066955      -0.91025115
C       -4.91053589      18.69231943       4.11465765      -1.43178565       0.17036970       0.68199005       0.11619361      -0.39411250      -0.38385900
N       -5.64661593      20.35827354       5.65061462      -0.04443589       0.10808067       1.20004478      -2.85797412      -2.70839781      -0.35101371
C       -7.55534351      17.34983459       4.24887731       0.24665735      -0.74241945       1.96591109       2.35917020       1.66116297       0.31801819
N       -8.30791227      19.22847176       5.64425902       2.11884533       0.03783240      -0.47886679       0.08516973      -1.30685261       0.42134398
C       -6.46174866      16.77823593       3.59090423       0.17911013       0.06363252       0.39341938       2.01880689       0.03267414      -1.38595162
N       -8.74380351      16.89814359       4.14770712       0.50239470       0.97911539       0.80800013      -4.33078445       1.25427852       1.48720707
C       -5.17151512      17.48804373       3.36591606       0.06370153      -2.07947165      -1.04089790       0.38058447      -0.31353556      -0.10453698
N       -6.60685591      15.51815220       2.91049983       0.22401513       0.00831700       0.03585478       0.11540977       0.26149638       1.23750227
N       -4.22964040      17.09503873       2.50036186      -0.03506578      -0.20625144       0.66711225      -2.12277315       0.36892178       1.10746209
N       -3.61071001      19.34463416       4.20901281      -0.30772382       0.62252490      -1.85091064      -0.56872921      -3.15784804      -0.53099260
O       -8.05248401      20.02828066       6.53556861      -0.26190818      -0.86007814      -0.10441533      -0.00797774       1.11306829       0.43958345
O       -9.49407692      18.93715242       5.39765665       0.01212655      -0.47718525       1.05624742       0.29224057       0.67431304       0.02156894
O       -7.62186262      14.83163408       2.87803299      -0.51922400      -1.07492355      -0.55659636      -0.49365894       0.78629052       0.04549971
O       -5.55672852      15.09861997       2.47248644       0.05698847      -0.12685267      -0.33382097       0.51499490      -1.56222597      -1.09956350
O       -3.47123554      20.44932799       4.63458275       0.88398894       0.25574920       0.17872479       0.72306381       2.49518493       0.18262555
O       -2.66021769      18.63835376       3.96530517      -0.36770517       0.89833386      -0.24725961       1.25879921      -0.59895733      -0.76462632
H       -4.83140164      20.85015784       5.37870784      -0.22415046       0.12705522      -0.16205513       0.24541506       0.87538682       0.37182152
H       -6.48962330      20.65578500       6.16802252       0.04249115       0.16066253       0.09536509       1.05748644       0.07952037      -0.24726241
H       -9.13563402      16.08250845       3.72531012       0.42508457      -0.14972841      -0.11375393       1.11786226      -0.37024444      -0.36188311
H       -9.45797735      17.56920512       4.59500142      -0.08648144       0.14785718       0.19166842       1.18882934      -1.58452475      -0.82672342
H       -3.42459230      17.66162662       2.39418388       0.25073928       0.16389881       0.10275272       0.62501932      -0.17205988      -0.11531380
H       -4.42279448      16.20323735       2.08311321      -0.16183646       0.05459466       0.06360385       0.82606577      -0.07849159      -0.46956664
C      -31.51525991      34.01227565      42.32156796       1.30387628       0.50985262      -0.39345520       0.39625946      -2.82475375      -0.96707423
C      -32.70475769      33.78402359      41.58205928       0.15712689      -0.10059660      -0.67295382      -2.16625008       2.16478256      -2.38212546
C      -30.74446949      35.13245744      42.00462977      -0.14454221      -0.56287935       0.21261678       0.06176148       0.68055015       0.44481008
N      -30.96190780      32.96677228      42.98213916       0.33810452      -0.02799923       0.83235020      -0.85337219       0.57382511       0.50419437
C      -33.12222375      34.65022245      40.46295705       1.26712790       0.25709459      -0.58096840       0.25399491      -1.82325205      -0.52689886
N      -33.60006800      32.75726989      41.85000132       0.47815348      -0.89246842      -0.15192443      -0.20620880      -2.47624689      -1.21820783
C      -32.25951791      35.67023305      40.14973765      -1.94220342      -1.08768404      -0.27545960      -0.12084624       0.90050916       0.61019124
N      -34.22823181      34.36872240      39.70032351       0.55949664      -0.14046278      -0.50343669       1.07279352       0.56328912       1.54800838
C      -31.16069877      36.05196928      41.00083812       1.12724624      -0.27515307      -0.41907497      -0.82574146      -0.52221724      -0.73864028
N      -32.84753070      36.54010717      39.08371786       0.05447561      -0.59401999      -0.14551523       1.58210659       0.97982145       3.17935423
N      -30.55337164      37.18211109      40.72722729       1.85924999       0.13518452      -0.08201552       1.70106613       0.22834020       2.04271479
N      -29.53965793      35.36687181      42.74166325      -0.05961918       0.62547390       0.96496258      -0.14613196       0.00910952       0.27108144
O      -34.44328007      32.27987763      40.97157186      -0.31751875      -0.16805273      -0.78832766       1.73338222       0.99123477       3.01974588
O      -33.39879285      32.19892355      42.90765692       0.25448147       0.00150135      -1.02548570      -1.28137563      -1.00394890       0.56429022
O      -33.15750981      37.69146730      12.50102572      -1.24046794      -1.48575845      -0.09798234       0.32566953      -0.94206372      -1.05241773
O      -32.98940445      36.02206814      38.02882318       0.35156877      -0.77202071       0.85507137      -0.54773892       0.11049204      -2.15360916
O      -28.98844090      36.42812022      42.61446501      -0.38093593       0.27791691       0.98222403       0.58837576       2.16845343      -0.71811629
O      -29.05551567      34.56633820      43.52837641      -0.61181526       1.52519781      -1.49470010      -0.20307010      -1.18157377       0.21971561
H      -30.07325392      33.14951553      43.43194688      -0.02168666       0.17538468      -0.10440524      -0.29595068      -0.28054074       0.10904683
H      -31.59869393      32.21919723      43.25886284      -0.17366979      -0.09837301       0.12079007       0.57024897       0.44707505      -0.05764713
H      -34.39565323      34.74627784      38.80759435      -0.14263265       0.33184627       0.04717972       0.34146521       0.79594313      -0.67233374
H      -34.50251151      33.41870344      39.79139216       0.02743265      -0.03776874      -0.23079129      -0.64222895      -0.77415319       0.17324068
H      -29.76026721      37.49762123      41.32770318       0.07898621      -0.00618134       0.03799129      -1.04393809      -0.54563371      -1.11896382
H      -30.76757211      37.54747054      12.92973801      -0.12455633      -0.19564032       0.16717752      -0.18140378       1.45059154      -1.40486885
C      -65.27814023      19.75782446       9.25551363      -0.14259837       0.19655982      -1.00314796       1.29173558       0.13726540      -1.40611462
C      -66.09620731      20.79944687       8.75226552      -0.80210899      -1.13624611      -1.68656921       2.28540683      -0.81034517      -0.86726498
C      -64.07478140      19.42092085       8.53937139      -0.13139118       0.31244340      -0.14176754       0.08452989       2.94390408      -1.61441279
N      -65.62984737      19.07194858      10.32406453      -0.50228773      -1.07691112       0.87224905       0.23679706      -2.36717497       0.62551852
C      -65.84162171      21.33054122       7.51583734      -0.96315701      -0.33805859      -1.04681085       0.59341955       0.82658859      -3.85477701
N      -67.36356342      20.91276852       9.29368190      -0.56480847      -0.08929097      -1.64555063      -1.81060027      -0.43742677       2.19270069
C      -64.54198496      21.07967226       6.86493592       0.46843978       1.16667465      -1.20956646      -0.63127150       0.46095805       0.11599726
N      -66.79507261      22.06836212       6.86340514       0.70349466       0.36948780       0.29333378      -3.97170005      -0.13845402       2.22221320
C      -63.57263321      20.21339720       7.37097606       0.26275906       2.21883963       0.51842151       0.00996704      -1.24353377       2.37693601
N      -64.27872495      21.80257401       5.63202897      -0.66458448      -0.50760419       0.27952932      -0.74699824       0.80790784       1.45054084
N      -62.24769967      20.11635651       6.91887187       0.30194352       0.62448803      -1.04217221      -2.42228996       0.56612543      -1.38895892
N      -63.30582746      18.31311551       8.92876850       0.74114248      -0.25721090      -0.10727326      -1.85330513      -2.03266452      -0.38032918
O      -68.34526463      20.50926001       8.67797165       0.02047230      -0.25569886       0.05370988       0.13230979       0.50482003       0.02851598
O      -67.39912812      21.27545574      10.46783966       0.66643288       1.26293453       1.49441902      -0.37913304       0.02134159      -0.25898852
O      -63.13999804      22.04648526       5.29948276      -0.48888581      -0.43471113      -0.60648636       1.35309978      -0.30887279      -0.45754055
O      -65.22813452      22.26727639       5.04689147      -0.63183117       0.19545790      -0.39817811      -0.29711329       0.04330703      -1.22712049
O      -62.11090120      18.31486220       8.89568028       0.59398931      -2.26331597       1.02067181       1.72796542       0.79301124      -0.31193428
O      -63.94565537      17.27945148       9.13089353      -0.07319660      -0.10215549      -0.47031285      -0.09648248       0.05896123       0.72598169
H      -65.38016955      18.07302025      10.31377287       0.01733664      -0.19886756      -0.27178239       0.10044534       0.89713226       0.20519827
H      -66.36092905      19.33371267      10.93605401      -0.32630044       0.20118179       0.04089618      -0.55107901       0.47484663       0.18045843
H      -66.94141308      22.31656577       5.87502464       0.10500361      -0.03176849      -0.20715269       1.32541331      -0.61519640       1.06670711