1296
Lattice="-42.69626897483758 9.043304971792812 23.04729479584795 0.0 15.874179760490561 6.986036658013866 0.0 0.0 -29.314766478882337" Properties=species:S:1:pos:R:3:momenta:R:3:forces:R:3 energy=-1487786.4394807229 free_energy=-1487786.4394807229 stress="0.0021951490236082746 -0.0021958721693891444 0.00021712824213987643 -0.0021958721693891444 0.0023960536624269895 -0.00010328576816898981 0.00021712824213987643 -0.00010328576816898981 0.0023963497793910286" pbc="T T T"
C      -23.09254329       9.68109493      10.02118120       0.17355046      -0.09187915       0.15974615       0.53485044      -2.02031736       1.43950420
C      -23.09368910      10.10825249      11.39885732      -0.42754836      -0.72791436       1.39371765      -0.84802078       1.37245496      -1.66209811
C      -22.95673847       8.22163247       9.82659148       0.92735513       0.14035398       0.42131565      -0.96164028       2.11290798       1.73333353
N      -23.18417957      10.47892237       8.99524188       1.06117283      -0.87604269      -0.47301447      -0.68811538       0.39280958      -1.38364021
C      -22.97014558      25.06998817      19.41031570      -0.10443628      -1.08267198      -0.13202537       0.35689181       1.35901779       3.39239743
N      -23.56785632      11.48715606      11.80923894      -0.41409697       0.68733629      -0.65532041       0.26628058      -0.87731134      -2.80978477
C      -23.02279240      23.69177461      19.25956954       0.48001852       0.28015455      -1.24215596      -0.92179921      -2.26116929      -1.08965615
N      -22.80473324      25.59092081      20.64070695      -1.07750508       0.22975345       0.79743247       0.39224633      -1.69012875       1.39508309
C      -23.23155293       7.29166675      10.93936553       1.34487795      -0.65143404      -1.20348309       1.48294138       1.97645627      -1.12531365
N      -22.93607515      22.73483218      20.32874975       0.77211887       0.01300248      -0.46298009       3.27653867       1.73003212       2.80819979
N      -23.45871029       6.05536914      10.61395276       0.06849718      -0.54140149      -0.62330045      -0.04859918       0.21016620       1.72800958
N      -22.59051232       7.84312037       8.52112957      -0.01522800       1.44068357       0.01941561       0.99932932      -1.15391501       1.66787927
O      -23.35036577      12.40687867      10.99824215      -1.24327440      -0.02414584      -0.54861062      -0.12551748      -0.77591518       0.99261604
O      -24.24025047      11.59268980      12.80158771       0.97399948       0.29289353       0.71460137      -0.16135222       0.85048861       0.04411556
O      -22.41307668      23.04196340      -7.83555240      -1.10169732       0.16943762      -1.13245693      -1.77814294       0.96238810      -2.15810130
O      -23.07440684      21.56490107      20.13497053       0.10263884      -2.09424780      -0.76362533      -1.34307314      -1.77891620      -1.23303638
O      -22.66906710       6.65298959       8.23507198      -0.89852053       0.24469821      -0.17540567      -0.51784197      -0.57262126      -0.97157103
O      -22.00914492       8.65775428       7.83966189       0.44177809       0.41206415      -0.78396640       0.18763452       0.02546801      -1.11405242
H      -23.24227965      10.13020624       8.01412547       0.22824063       0.03756763       0.04491501       0.24107294       0.35367316       1.53747297
H      -23.48622546      11.39699511       9.20088649      -0.19797098      -0.18008196      -0.54138416       0.03078035       0.98424238       0.02286618
H      -22.79546582      24.90497416      21.46091027      -0.16056168      -0.04365503       0.20066021       0.37540458       1.72065769      -1.69699886
H      -22.76609661      26.60648929      20.75526812      -0.11091273      -0.41800698      -0.19723148      -0.19107923      -1.21153861       0.44772219
H      -23.62519473       5.95260024       9.65991916       0.06732406      -0.32596495       0.17602013      -0.30460556      -1.05799815      -1.56061896
H      -23.70847692       5.43484174     -17.96255979      -0.29074214       0.02844673      -0.19874974      -0.12189340      -0.57565439      -0.08900615
C      -45.25271409      15.12836055      -3.07439196       0.29335911       0.48901992      -0.15887119       1.54349832      -0.39856549       0.35573946
C      -45.61236475      13.79726783      -3.39946929       1.14323774      -0.51492299      -1.10038793       0.77292186       1.32437303      -0.37927803
C      -46.07720890      16.19867691      -3.52532646      -0.06242547      -0.19816325      -0.58434776       3.60863684       1.80289526       1.59146536
N      -44.04748751      15.33409913      -2.47054931       2.42088769       2.58472635      -0.75412462      -2.00414851      -1.21846566      -1.29589277
C      -46.67407882      13.55415593      -4.20964710       0.61413775       0.79107114       0.43704074      -2.92501494      -1.15340727      -0.28039990
N      -44.74109011      12.70007301      -3.03974163      -2.29253448      -0.35783537      -0.31881913       0.55940171       2.44592577       4.93033218
C      -47.52752342      14.68993565      -4.54447375       0.99965940       2.06932880      -0.68351248      -0.11265138       0.77402594      -0.27504317
N      -47.05400052      12.25392439      -4.44015894       0.19312560      -0.39346722       0.32503236       2.56897859       2.46200977       2.31245833
C      -47.11932079      16.07324426      -4.38990320       0.26133634       0.75849096      -0.19817304      -2.90432489      -1.34470813      -0.96002172
N      -48.83095835      14.42820347      -5.05931519      -1.61985160      -0.44264986      -0.81453898       0.51346230      -3.11627590      -2.37197824
N      -47.72205549      17.13403324      -5.03210189      -0.45782199      -1.64494394       0.16146133       0.64181227       0.97958857       1.64449631
N      -45.53261541      17.53880299      -3.16074935       0.31859042       0.29085508      -0.26982502       2.51354105      -0.27078310       1.52310235
O      -44.53694342      12.65103337      -1.78193259       1.01213114      -0.83290473      -1.16821068      -0.49420056      -0.43686591      -1.73275918
O      -44.13004704      12.05715753      -3.80209482      -0.42301944       2.11731291       0.14684297       0.55839109      -1.58184868      -2.27457852
O      -49.74055445      15.21874559      -5.17312563      -1.80876520       0.63782958       1.48873012      -0.00882663       1.38595409       0.79332082
O      -48.98113688      13.25838312      -5.52422075      -1.05218103       0.94457207       0.70181414      -0.50140724       1.65095311       0.52868854
O      -46.14008206      18.53683460      -3.36738958       1.43665757      -1.25224571      -0.43927774      -2.20197106       1.46811334      -1.15108810
O      -44.41926397      17.70850648      -2.54995012       1.28174994      -1.14530288      -0.13448490      -1.76800477      -1.01900253      -0.84254980
H      -43.71073483      14.53804431      -2.03384850       0.20275599       0.02857188       0.17444572       0.87535059      -1.47318975       0.91936841
H      -43.81739111      16.19617229      -2.07354854       0.13614650       0.02084097      -0.37893101       0.30545728       1.26790311       0.19688832
H      -47.68394434      12.12097036      -5.12061121       0.33637419       0.02521806       0.17765890      -2.71164895      -0.69376783      -2.56579221
H      -46.45329283      11.50911345      -4.23304228      -0.56452142       0.39295264       0.22492481       0.96083159      -0.81378802       0.24104407
H      -47.38908197      18.02297352      -4.59227548       0.03481724      -0.48094156       0.22895824      -0.64436571      -0.97134573      -0.93376375
H      -48.72643469      17.18159786      -5.19599492       0.18851376      -0.09996198       0.20147069       0.55991444      -0.89757637       0.01873396
C      -42.31380608      14.08295968     -28.58662877       0.56227745       0.06458339      -0.53677997      -1.15323753      -0.02201602      -0.09987225
C      -41.07321189      13.41185947     -28.57838607       1.15550231      -0.37351306       0.35987570       0.31473094      -1.40335868       0.67948720
C      -43.43801069      13.47825861     -27.98047229      -0.40487266       1.30217740      -0.85785024      -0.79757110      -2.05806797       1.17614332
N      -42.44302879      15.24503798     -29.16249951       0.88583596      -0.80406903      -0.70297931      -1.78701661       1.87628447      -0.25444661
C      -40.83221444      28.19858772     -20.58750164       0.74048996       0.01389086       0.31784752       0.08142904       1.36958564      -1.30732285
N      -40.09037319      13.81901179     -29.52878140       0.65834211       0.81611143      -0.15956951      -1.24129158       1.53968064      -0.01274887
C      -41.93540226      27.51807668     -20.08986708       0.55207677      -1.29858101      -0.56822783      -1.82147748       0.03062628       0.39523896
N      -39.62541151      27.90048031     -20.20118977      -1.37502815      -0.92715829       0.13111538       1.01596732      -1.11043986       2.01940800
C      -43.24291840      12.19386362     -27.32623967       1.15049808      -0.81096004       1.43059396      -0.95025630      -0.38185757      -1.29661423
N      -41.86961082      26.34640423     -19.23511841       0.80690805       0.58682937      -0.18034273       2.65829756       2.66200540       1.73721348
N      -44.25905800      11.39678217     -27.04428273       0.47719263      -1.12510652       0.69574649       2.65823422       0.44720153       0.75443619
N      -44.83878078      13.97941773     -28.09921141      -0.74385746      -0.17177029      -0.29412089       4.30233694       0.90552318      -0.31341449
O      -40.41480019      14.58007255     -30.47614288      -0.45457352       0.21149445       1.74109014       0.37925222      -1.13268321       0.90561296
O      -38.94782785      13.45489714     -29.38081492      -0.10032607      -2.19250398      -0.08389704       1.42544590      -0.94385346       0.22844485
O      -40.83535177      26.22139153     -47.83860128       1.41225605       0.83243076       0.09586527      -0.13674727      -0.22376987      -0.98743033
O      -42.82148635      25.65431680     -19.00774039       0.15237727      -0.48006688       1.30997290      -0.55535186      -1.81143613      -0.01259098
O      -45.73325261      13.36245050     -27.63396340       0.24767760      -1.84888742       0.63745644      -2.18099682      -1.19189689       0.62603817
O      -44.96326683      15.06983616     -28.63030290      -0.75345908       0.28270156       2.53641884      -0.59740206       0.85759694      -0.55877966
H      -43.35778937      15.76499135     -29.12812127       0.02692923      -0.20201494      -0.26316533       1.49922009      -1.05401544       0.23540672
H      -41.61691158      15.69315797     -29.47509307       0.23521195      -0.15048209      -0.01396642       0.24420310       0.40083063      -0.46782425
H      -39.48679783      27.38112738     -19.27844425      -0.03385399      -0.63010841       0.30294682      -0.30791126       0.82045574      -2.22036783
H      -38.90880821      28.38329829     -20.69060944      -0.17902671      -0.07282555      -0.00583880       0.84616754       0.16694311      -0.14344063
H      -45.09608041      11.62917035     -27.43786046       0.44046690      -0.22998488      -0.21198971      -2.71197277       0.40060710      -0.37788528
H      -43.96489187      10.58745833     -55.82259619      -0.43583580       0.10721897      -0.17684140      -1.35952307      -0.20614541      -0.47945701
C      -32.28490690       0.60396824      10.25635331       0.26305879       1.24162034       0.14381037       1.63266553       1.55794270      -0.76112099
C      -32.53512328       0.00627529       8.97529738      -1.38023083       0.56879582       0.31532666      -0.15857503       1.39371680      -0.17600355
C      -32.06221176       2.08003637      10.24909814       0.27462205       1.95275801      -0.63638377      -0.72814693      -0.03657574       1.37693893
N      -32.04371608      -0.07284253      11.36990622       0.37853972       0.80235991      -0.69764472       0.78215871       1.51846465       1.54110887
C      -32.57417243       0.86810094       7.77798971       0.03840622       0.05748056      -0.68661989      -1.33654854      -1.47298338       2.65005266
N      -32.78540406      -1.37707697       8.88496420       0.69426981      -0.60531024      -0.31785505       0.41710272      -0.88392099       0.17852176
C      -32.68046137       2.22829938       7.97498137      -0.50493504       0.57246914       2.11402060      -0.52241144       1.04607466      -2.08499869
N      -32.74254438       0.31112496       6.61054736       0.47417956       0.65865683      -0.47842764       0.53450217       0.10737249       1.99981935
C      -32.43581125       2.95791620       9.12954133      -1.27107997      -0.36981432      -0.65943103       1.74257481      -2.10675276       1.43869232
N      -32.92759065       2.99581613       6.70483292      -0.54006119       0.79317981       0.48179968      -1.49228595       1.23687380       2.71448400
N      -32.24521864       4.26082837       8.98902101      -0.03008645       0.55890705       0.29506461      -0.34012552       2.82359069       0.84751102
N      -31.71464257       2.68521186      11.59094540       0.13560431      -0.05684662       0.70521600       0.10869157       0.41355508      -1.11630330
O      -32.47328866      -2.11483773       9.82543527      -2.04835912      -1.77705494       1.30050701      -0.37601504       0.29784971      -0.11497306
O      -33.30257905      -1.87032414       7.86722518      -0.46253009      -1.17263368      -0.23692912       0.04787137       0.43991496       0.15778894
O      -33.82603942       3.88750402       6.72802609       1.34305241       0.28104810       0.06120419       2.01678025      -1.87766801      -0.61978050
O      -32.21651094       2.70446820       5.78922881       0.00066959      -0.24883698      -0.39538952       0.10486264       0.62467524      -1.45019465
O      -31.06641280       2.08140710      12.45311322       0.10897812      -0.79240857       1.12975526      -0.29456872      -0.57008565      -0.60214710
O      -32.03198923       3.84270236      11.79015699      -0.83663253       1.54150313      -0.28595458      -0.32113924       0.00105924      -0.78007887
H      -31.53024148       0.42164729      12.15581868       0.06682668       0.09959212      -0.10441312      -1.13491712      -0.68763406      -1.47011683
H      -32.19783814      -1.04590527      11.44625776      -0.03537462       0.89139142      -0.11105685      -0.12358073      -0.68054438      -0.44178132
H      -32.72933961       0.84185129       5.83485162       0.20471169      -0.18357762       0.05723051       0.01457487       1.60089038      -3.15969695
H      -33.04179213      -0.58953420       6.68624811       0.06829850      -0.12713177      -0.20622810      -0.62702139      -2.93777252      -0.67959594
H      -31.98997555       4.89934255       9.76824351      -0.03910476       0.15726450       0.00245291      -0.53902985      -1.30647632      -0.67466039
H      -32.69913674       4.74799160       8.19164571      -0.32324285      -0.24753212       0.00947166       0.56422685      -0.78181162       1.02676913
C      -19.12331567       2.29750425      -3.70191231      -0.37399939      -0.73333815       0.62031210       0.07163508       1.07527181      -2.09936915
C      -20.32572667       2.92731366      -4.28749851      -1.05391018       0.21232803      -0.68312901       2.29357786      -1.08889480      -0.47485947
C      -19.07681440       2.29714972      -2.34554527      -1.09335198       0.12205952       0.74838180       0.88222706       0.49496830       1.36506423
N      -17.99842346       1.89935274      -4.40955951       0.34984771      -0.13367085       0.21769942      -1.13155012       0.69076910       0.53418161
C      -21.40622712      19.25437398       3.50790458       1.26082261      -0.15536390      -1.58737588       0.90746242       0.21843601      -1.71409738
N      -20.21965777       3.27949078      -5.73642957       0.76476264       0.42757824      -0.19086082       0.03004858      -1.19946778       0.07988468
C      -21.34096920      19.06365851       4.89711870       0.53208729      -0.63746462       1.16783343      -0.33936689      -0.14695053       1.43738325
N      -22.42582594      19.89412134       2.94995517      -2.00943662       0.73476133       0.56344025      -0.70287562       0.12456304      -1.80109129
C      -20.13993282       2.69586036      -1.48101674       1.74111497      -1.46919969       1.30690110       1.21628437      -1.11448005      -2.17343131
N      -22.45939195      19.49126490       5.73919476       1.12764229      -1.02850282      -0.58042011       0.52642707       0.70586923      -1.53518865
N      -19.92897640       2.37943383      -0.23412820       1.75174000       0.38613612       0.94473789      -2.11054517       0.67414857       2.78247946
N      -17.78217231       1.81136423      -1.63840388       0.65708273      -2.10839385       0.73136549      -1.82401137      -1.68757711       0.27793524
O      -19.62524569       2.64380379      -6.60229765      -0.88343802       1.46102540       1.61915176       1.08830256      -1.16738879       1.55564687
O      -20.78048860       4.27922182      -6.08856927       0.31768723      -0.44684191       1.81531189      -1.67727126       2.50168592       0.19244451
O      -23.49093126      19.99628144     -24.00789333       1.01311830      -1.00343849      -0.30633396      -0.06768479      -0.29116454      -1.23925791
O      -22.32590871      19.41113643       6.92227998      -0.76925621       0.25273249       1.28818821       0.98105563      -0.89964935       2.98531853
O      -17.55424708       0.61424500      -1.72364265       0.06692962       1.18841942      -0.31509777      -0.04337259       0.74771199      -0.56043453
O      -17.17571504       2.53701269      -0.87399579      -2.13698106       0.56246928      -0.52759554       0.05538705       0.86095434      -0.50902545
H      -17.10769867       2.05248321      -3.94646089      -0.14336252      -0.02270151       0.22811082      -0.38431439      -0.37423966      -0.37790997
H      -18.00398913       1.93954832      -5.41448840      -0.10979666      -0.19356460      -0.06718366      -0.19588915       0.06415716      -0.02664406
H      -23.19851518      20.15122094       3.54624688       0.03286788      -0.44530113       0.59231507       0.02068482       0.07772623      -0.15167572
H      -22.40815176      20.05469627       1.91860471       0.00316936       0.05636498      -0.55649789       0.04487416      -0.03858030       1.62970092
H      -19.02633839       2.15088181       0.16764626       0.18931489       0.29017431       0.16951173      -0.71976070       0.28706571      -0.24605652
H      -20.75898091       2.61622395     -28.98164363      -0.26873587      -0.01247252      -0.11575514       1.15446951      -0.17950121       0.20603225
C       -6.35292065      15.18931695       4.52946484      -0.66547324       0.48794655       1.25522895      -1.55582221       1.13708419       1.69999095
C       -6.98629013      14.57726047       3.39827143      -0.21039522       1.09356916      -0.32893973      -0.39493374       0.52065147       0.25203929
C       -7.23024238      15.83292293       5.48789581       0.31673003      -0.64682163      -0.26048903      -1.60612022       0.74077179       0.43359445
N       -5.06065250      15.22005799       4.81832978       0.06279125      -0.67519045      -0.42314313      -1.41355727       1.29727923       2.50919082
C       -8.43216227      14.84661140       3.01627341       0.02065720      -0.28194157      -0.53835491       2.62168660      -0.42367374      -0.24921114
N       -6.12875149      13.86202810       2.49046833      -0.87690239       1.24542495       0.18640214       1.39172822      -0.48125848      -0.77345028
C       -9.18795527      15.63138200       3.91299730       0.92944664       0.92701131       1.12679650       3.00353149      -0.64315082       2.01909470
N       -8.90100168      14.46504097       1.81622955       0.18575660       0.41344403      -0.11080503      -2.54848873       0.03177936       1.69910975
C       -8.60347910      16.09452352       5.17321422       0.49544983      -0.66537847      -1.01645978      -1.42263164       0.27720822       1.32564488
N      -10.45871791      16.06085987       3.66684219       1.62855759      -0.03383863      -0.75748668      -1.74332395       0.37812730      -3.07857737
N       -9.50183037      16.68880210       6.03463259       0.17872551      -0.71808194      -0.05820797       0.85384219       0.86939439      -1.31164669
N       -6.77032512      16.49529164       6.78515128       0.01192074       0.74068354      -0.17391554      -4.24014299      -0.83868103       1.28102059
O       -6.55476371      13.66919566       1.37677764      -0.18494514       0.67922172      -0.66258361      -1.42150398      -0.03721964      -1.69207548
O       -4.98152351      13.43799415       2.71167826      -0.31504612      -0.62814634      -0.23006232      -0.80001838       1.06861231       2.04747475
O      -10.84604585      17.12028631       4.11394662       0.98050682       0.21679614       0.69454453      -1.09795042       0.77097595      -0.18963016
O      -11.14965041      15.46044329       2.82556545       0.94808553      -1.05133074       2.21293184       0.09458343      -0.48531657       0.46161728
O       -7.56384426      16.56613394       7.78334238       0.50500061       1.73567509      -0.39150437       1.26762738      -0.88733560      -2.51252335
O       -5.72238824      17.01822252       6.85736189       1.12351949      -0.68819380       0.98123315       3.52720282       0.79619314      -0.80162381
H       -4.65418040      15.78043739       5.57559379       0.24900194      -0.13130928      -0.32401758      -0.94384317      -0.41804238      -0.49750626
H       -4.48521565      14.97192806       4.13113450      -0.18607891      -0.23768541      -0.66306926       2.92814099      -1.69008408      -3.07735681
H       -9.94967111      14.41285956       1.86861632      -0.39956440      -0.40255169       0.03625672       1.47516673       0.33347909      -0.63952136
H       -8.43082855      13.78805249       1.24898088      -0.12360618       0.20462020      -0.10408930       0.42913818      -0.02049377       0.05110496
H       -9.16535898      17.11575389       6.87571851      -0.11506689       0.39561253       0.05184152       0.40174507      -0.50537195       0.29026896
H      -10.30226784      17.24941024       5.60683351       0.27181954       0.00299610       0.08059921       1.48195996      -1.54864287       0.76492340
C      -30.03591966      30.97428817      39.58644078      -1.22340839      -0.59598392      -0.32869627      -0.98678883      -3.25653314      -0.83059405
C      -31.31690488      30.65158170      39.05259987      -1.21167958       0.30685474      -0.23763340       0.28976576       2.70578574       1.23615666
C      -29.83852052      32.23342012      40.14885188      -0.86639932      -0.00219605       0.68773208       2.99077447       1.17692767      -0.63319415
N      -29.08598157      29.99609238      39.56371089      -0.88701669      -0.04605417       0.26129029       2.06936789       2.73340953       1.56310485
C      -32.30976018      31.74081744      39.06955295       0.62734465      -0.70166441       1.41735999      -1.72770435      -1.78567138      -0.85847096
N      -31.66282941      29.30181958      38.60709024       0.21364822       0.57935736      -0.30142835      -2.78251277       2.30221410       0.46016296
C      -31.99720693      33.09427856      39.42586760       0.83110104      -0.69101850      -1.00206490       3.26598631      -0.37999807       1.01207589
N      -33.59680087      31.48320763      38.70164529       0.96329740      -0.44058911      -0.38674338       0.75476973       2.29940710      -0.07337304
C      -30.58404395      33.33665584      39.92337999      -0.26824177       0.11865950       1.34845015      -4.57924108       2.12375794      -1.68119336
N      -32.86872117      34.18944389      39.21063062      -1.41757740      -0.55675439       0.34110547       0.73419350       1.20909361       1.23001641
N      -30.18387388      34.60264154      40.07280364       0.55368653       0.10664162       0.46095247      -0.60913451       0.17316637       0.33393517
N      -28.44709081      32.57229630      40.46361393      -0.00677440      -0.19526989      -0.87505947       1.13308397       1.14768447      -0.31431030
O      -30.98000489      28.71117614      37.82501449       0.47675807      -0.59178101      -1.39874871       1.38557524      -0.91991982      -0.32760262
O      -32.80030125      28.95180766      38.94730531      -0.88713905      -1.23335996      -0.11977102       1.02998452      -0.45293653      -0.14943195
O      -32.61503988      35.33170971      10.35749388       2.24949191       0.57676037      -0.61961779       0.11297867      -1.28611398      -0.24227779
O      -33.89946367      34.02515207      38.60714848      -1.72240797      -0.74935639       1.11112276      -1.38322039      -0.22513825      -0.94914997
O      -27.85425878      33.63434098      40.20127740       0.41600494      -0.64596266       0.57009034      -1.46121037      -1.45253939       0.12805122
O      -27.86673449      31.67445893      41.01419917       1.24850073      -0.92660121      -0.49741042       1.46836104      -1.06251775       1.27880863
H      -28.18723293      30.24673487      40.11719867       0.09425677      -0.02408723       0.01600598      -2.39155923      -0.97130418      -1.24169055
H      -29.41604031      29.07685242      39.55404138       0.10852439      -0.00748297       0.34308702      -0.15297640      -1.22364469      -0.27453044
H      -34.10344934      32.30345136      38.36121975       0.15828564       0.22496337       0.04764654       0.18417811      -0.37869751       0.56476217
H      -33.93602863      30.65599851      38.31980378       0.20463174      -0.01734210      -0.07127780       0.26748879      -1.72419378      -0.13793623
H      -29.28015547      34.94848410      39.88218950      -0.11127783      -0.07064664      -0.04013450       1.21892770      -0.65216711       0.27808170
H      -30.87431970      35.32188890      10.77890933      -0.23367965      -0.02701192       0.03630037      -0.78466897      -0.05258923      -0.21924446
C      -62.71611715      22.44725861       3.20703848       0.72271402      -0.12273908       0.42943480      -0.43966394      -1.20569985      -2.08891178
C      -62.09206335      22.82177492       4.38560433      -1.23813299      -0.16964836       0.49198657       0.74206299       0.26381977       1.93846213
C      -63.80287870      23.23383241       2.67739345      -1.14764500       1.79302341       0.17037759       1.15204823      -0.49743608       0.52377005
N      -62.31015851      21.36372310       2.46762380      -0.16102904      -0.10690454      -2.41360068      -2.66921659       1.73977275      -0.95000499
C      -62.55041901      23.90120767       5.23141594       2.41212579       0.59973677      -0.51044771      -1.61540400       0.11246118      -3.56016436
N      -60.92957975      22.06035953       4.84461720      -0.03094538      -0.20441497      -0.09426769       1.46208578      -1.73611858       1.66382449
C      -63.78713403      24.54668163       4.67202140       0.58573166      -0.95932952      -0.67270512       1.74579274       1.41772150       3.99137478
N      -61.80075744      24.36916479       6.18771510      -0.23547271      -1.20524877       1.31179877       1.45849851       1.03016267       3.73453236
C      -64.38496475      24.26980063       3.44990000       0.03041758      -0.15272744       1.20233818      -0.82801920      -0.46023779      -2.01412898
N      -64.36378233      25.65395321       5.51837177       1.58980579       0.80710940       0.32358334      -1.65915083      -0.41651147      -2.08605583
N      -65.52403802      24.83989388       2.98226561      -0.67410488      -0.08507096      -0.55810117      -0.31011233       1.00442474      -1.02043340
N      -64.26245189      22.98953923       1.32808279       0.75124429       0.23182337      -0.12662246       0.43011877      -2.29901929       1.06183832
O      -60.10781029      21.53272504       4.09970942      -0.23665731       0.17125986      -1.30597205      -1.38377847       0.97363330      -0.77069519
O      -60.75656303      21.86042495       6.08526332      -0.38217600       0.39738208      -0.25330609      -0.85284674       1.46025168      -1.15905033
O      -65.32842110      26.25948040       5.03160021      -0.99855223      -0.56371482      -0.52733790       0.28220392       0.03001516      -0.00838794
O      -64.00845419      25.95861676       6.62345524       0.49894332      -0.99195675       0.17215380       1.77996078      -0.66550665       1.15977271
O      -64.29655085      21.82774666       0.89048731      -0.26209988      -1.41512553      -0.69599136       0.18042423      -1.01637631       0.40220594
O      -64.62201705      23.85372819       0.61784677       0.50147186       0.11898781      -0.16256673      -0.98314265       3.39778926      -1.22989170
H      -63.07601183      21.06959422       1.82294030       0.19637361       0.62189881      -0.10907717       1.21321934       0.09676334       0.64889666
H      -61.78160318      20.64258047       2.83335472       0.21975999      -0.09435632       0.12267463       1.39105722      -1.11409265       1.19581574
H      -61.96697422      25.23326949       6.77280581      -0.19222766      -0.62632468      -0.12799846      -0.57489160      -1.66530539      -1.54229870