1296
Lattice="-45.78606313554897 -14.235909063221287 10.06877098603733 0.0 15.686529222478903 15.105280110906051 0.0 0.0 -29.474261950245303" Properties=species:S:1:pos:R:3:momenta:R:3:forces:R:3 energy=-1487779.7527332068 free_energy=-1487779.7527332068 stress="0.005035498784575421 0.000608201592329552 0.0004651139448170922 0.000608201592329552 0.0014454493462780916 -0.0008752096455277124 0.0004651139448170922 -0.0008752096455277124 0.007164533584292348" pbc="T T T"
C      -28.45064961     -13.21569004      -4.19922066      -0.76371026      -0.01805798      -0.31688223       0.33669704       0.94376262       0.54167996
C      -28.04692106     -13.80019014      -5.45019872      -0.41852029      -0.05280103      -0.94397873      -1.45611737       0.72669358       0.57596690
C      -29.84590444     -13.20449078      -3.84359764      -0.03204995       0.36607272      -0.55215677       0.05559599      -0.32191382       1.63439837
N      -27.55938323     -12.57235174      -3.41278176       0.16737390      -1.46617162      -0.07240889      -2.51452788      -0.63397830       0.66699513
C      -29.10193717       1.49454881       8.73484869       0.38834921      -0.17375158      -1.25714763       3.19890976      -0.15787209      -1.24600205
N      -26.67670130     -13.63419509      -5.80371174      -1.39941086      -0.68485295      -0.80060252      -1.31379850      -1.08405438      -3.03264475
C      -30.38325073       1.69604302       9.10966858       0.41657104       0.44915496      -0.05254123      -2.56713511      -0.22786251       1.19045573
N      -28.82536775       0.98342958       7.47894251      -0.60453198       2.60289677       0.64209226      -2.53838196      -1.18914616       0.19381533
C      -30.87194815     -13.63742057      -4.68777489      -0.92470549       0.51916380      -0.77314616       1.75168266       0.92813999      -0.60498686
N      -31.39552740       1.59536295       8.06527580      -1.49422047      -0.62741463       0.00124481       1.66087599       0.55331979       1.70478724
N      -32.16551274     -13.55863707      -4.38249861      -1.08653059      -1.28106631       0.67027256       0.85794116       0.01448355       2.51662645
N      -30.28779163     -12.58151432      -2.54306950       0.36901433      -0.66413786      -1.35776443       1.19902195       0.69705844      -1.79788035
O      -25.90663334     -13.39239808      -4.90444368      -0.72660588       1.87860379      -0.07608661       1.99162257      -0.25522815      -1.08424598
O      -26.38138706     -13.77036445      -7.03279961      -1.65175538      -0.34477943       2.03574634       0.12794008       0.37009747       2.73167518
O      -31.41259915       0.62120755     -22.07572735       0.24791757      -2.84985534       0.19458408      -0.59240597      -2.81079759      -1.90115682
O      -32.09477877       2.54576644       7.91478997       1.26952907       0.24376408       0.21202736      -1.64521891       1.80232128      -0.26706226
O      -29.65034919     -11.62974598      -2.13923501       0.86603489      -0.78561425       1.21457581       0.26223070      -0.01572404       0.40648212
O      -31.31090484     -12.93929786      -2.00438894       0.07549086       1.09216457      -1.54075588      -0.72269603      -0.85008636       0.45758937
H      -27.77413304     -12.30010170      -2.48499852       0.18398208      -0.29148221       0.02817272      -0.71592359       0.33476980       0.23931692
H      -26.63111698     -12.52447871      -3.66110401       0.04687280      -0.10716390       0.31315444       1.89331925      -0.12656132      -0.70458045
H      -29.47585312       0.26953651       7.07939689       0.13340400       0.14972133       0.06173241       0.55069612       1.73896531       0.76298857
H      -27.98465103       1.03068357       6.99421829      -0.06809757      -0.15938846       0.26080192       1.85965943       0.54809252       0.12780456
H      -32.45143780     -13.17015022      -3.45509013      -0.18851325      -0.01602127      -0.22135796       0.50552429      -0.64346870      -1.55934753
H      -32.72279288     -13.39337671     -34.61114753      -0.00099038      -0.03254678      -0.25704752      -2.11439920       0.41806276      -1.96901619
C      -49.61638519      -4.42642675     -13.40339217       0.76274224       0.85534895       1.77758808      -1.75347151      -0.91434282       1.07877080
C      -50.35220769      -5.41831957     -12.60238236      -0.40796163       0.59748675      -0.24611314       1.16905498       1.52016643       0.03134891
C      -50.10015518      -4.16109260     -14.68799450       0.21446503       0.19669374       0.00884346       4.06657216       0.75320360       0.70507891
N      -48.71397332      -3.69679314     -12.80606568      -0.70747286       1.74679758      -1.57275887      -0.22958067       0.20825041       2.50292935
C      -51.06931322      -6.43082718     -13.26500534      -0.00655456       0.74481106      -0.90722190      -0.77865813      -2.01200916      -0.01776339
N      -50.27851544      -5.37994843     -11.17800701      -1.14634464      -0.06692642       0.46783758      -1.07506650      -0.33186966       0.84716053
C      -51.48561607      -6.14028165     -14.60055741       0.99923008       1.41394489      -0.75116986       0.49374430       1.39199111      -0.47487809
N      -51.30584978      -7.60634963     -12.59094521      -0.55789959      -0.10689785       0.77462212       0.58338214       2.03908537      -0.05822597
C      -51.15727916      -4.84671488     -15.21004064      -0.34400063      -1.89182853       0.75490757      -3.06239375      -1.04495246      -1.49291590
N      -52.15274724      -7.08966333     -15.40390667       0.18252930       1.26993376       0.32962542      -0.71785564       1.68432478      -1.68302587
N      -51.89231940      -4.25630099     -16.18289463      -0.06568356      -0.00460791      -1.07084468       1.95346807       0.88192498       0.20110539
N      -49.18079067      -3.29261533     -15.46001893      -0.67289875      -0.75241201      -0.38813194       1.64271764      -0.84634199       2.66009180
O      -49.48010598      -4.66844002     -10.57603162       0.36508408       0.52123061       1.35759054      -0.27918720      -0.28898621      -0.32118162
O      -51.13338667      -6.04420831     -10.53409295       1.43114871       1.55221574       1.12859700       1.02901921       0.50526454      -0.52590156
O      -52.23569196      -8.19887098     -14.96368957      -0.64778384      -0.33661974       0.70325506      -0.29309116      -2.02787170       0.41598160
O      -52.61920031      -6.77821955     -16.53817139      -0.06586297      -0.69990875      -1.63438363       0.90043598      -0.18088031       2.02802862
O      -49.65489506      -2.70727718     -16.37083389      -0.98250054       1.50895815       0.22329948      -0.71872783       1.37056955      -2.51334093
O      -47.96515577      -3.17160053     -15.11028499      -0.43091587      -0.82486600      -0.22422837      -2.64389136      -0.14129380      -0.97106562
H      -48.91173513      -3.57554888     -11.82784921      -0.09345643       0.25914457      -0.04442994       0.56806887      -0.56919675       0.50832780
H      -48.08449587      -3.03780844     -13.14383683      -0.01995633      -0.16496885      -0.04328092       0.61135758       0.69690813      -1.69753138
H      -51.67238143      -8.42218757     -13.02506945       0.10845220       0.26396971      -0.06598637      -0.38402875       0.00584064      -0.36194370
H      -51.15748799      -7.51648456     -11.58096548      -0.16469715       0.13067225      -0.28635462      -0.28293176      -0.45260839      -0.81352909
H      -51.56421592      -3.31220611     -16.46703255      -0.06950143      -0.10874067       0.08545065      -0.43199554      -1.56815258       0.16841058
H      -52.67720265      -4.63844066     -16.65894385      -0.15496832      -0.00071501      -0.09279286      -0.10628889      -0.75915467       0.22856397
C      -46.75402583      -6.91028613     -48.14146892       0.67954169      -0.82551856      -1.14981793      -0.24193169      -2.11593808       0.80603484
C      -46.56010777      -7.37851833     -46.80854580       0.61600647       1.09519488      -1.14533597      -1.06772869       2.20061246      -0.47435542
C      -46.37632427      -7.73593096     -49.20813111       0.02123920      -0.22884817      -0.02086637       0.54884940      -0.59822361       1.02376893
N      -47.45260452      -5.86496160     -48.38591981      -0.10503917       0.84818150      -0.54586906      -0.91526066       2.53792486       2.26362235
C      -45.62705101       7.36643645     -31.44075192       0.35027168       0.83029584       0.64231333       2.44797113      -1.34109134       0.75866068
N      -47.18400946      -6.67153716     -45.68574031       0.08354405      -0.84363685      -0.51357665      -0.32554929      -3.31137896      -0.12429625
C      -44.94630773       6.74990932     -32.59606170      -0.17196989      -0.49764776       1.50935416      -0.12986284      -2.13885900       2.23923868
N      -45.25499389       7.20516425     -30.14195710       0.55270406      -0.33401787      -0.40207019       1.49439086      -3.38568057      -0.64863225
C      -45.50912086      -8.85121160     -49.00133530       0.30512587       0.59689655       0.11814219       1.48588893       0.12442090      -1.91452678
N      -44.00589710       5.60088952     -32.26941913       1.15610721       0.24851494      -0.57691635       0.16882324       0.05570598       0.79125536
N      -45.03589916      -9.58737458     -50.04712843       0.97450720       0.81038570      -0.50757568      -1.77730456       2.18110638       1.74676980
N      -46.74802540      -7.37632618     -50.47568777       0.58788040       0.37386262       0.92126474       0.40070651       1.02650401      -4.60153207
O      -47.38214171      -7.33402056     -44.65674701      -0.66668783       1.17916136      -1.96518433      -0.18452012       1.00395848      -0.20017264
O      -47.62487284      -5.57741534     -45.82873729      -0.88735458      -0.70947879      -0.21850817      -0.42567002       1.99668410      -0.04942430
O      -43.67146817       4.80750601     -62.61418550      -1.36758203      -0.04652613       0.02082392      -0.38389856       0.48767259      -0.65292505
O      -43.54877553       5.43228347     -31.12642821       0.49437256      -0.38901306       1.52160341      -0.90184491       1.18044826      -0.84108654
O      -46.43798020      -8.09500024     -51.42167103      -0.55749419      -1.05888660       0.46603496      -0.00671578      -1.07956048       0.33280533
O      -47.26789121      -6.29584695     -50.83534730      -0.89239777       1.07110498      -1.75773973      -0.43565169       0.28213307       1.77380740
H      -47.30203312      -5.44882374     -49.25663860       0.35461910      -0.01247645      -0.13616466      -0.27675197       0.81439869      -1.42277055
H      -47.55389480      -5.28654632     -47.55035153       0.12289509       0.39848219       0.17256622      -0.37248774       0.29157320      -0.90427146
H      -44.80550214       6.26010613     -29.95695961      -0.09186294       0.13590421      -0.06830288      -0.37288472       1.97460805      -0.37868012
H      -45.91223552       7.49619577     -29.43902823       0.19620676      -0.27319624      -0.23594273      -0.07130550       0.09843771      -0.07863965
H      -45.33131738      -9.43242074     -50.99096837      -0.04882385      -0.20243808      -0.25397428      -0.34532595       0.10651159       0.02997039
H      -44.51005954     -10.31904902     -79.20509810      -0.09114990       0.10191635      -0.64714266       1.81016498      -2.28188208       0.39161325
C      -34.02612480     -18.85920611      -1.65165744       0.36866189      -0.52309744      -0.10494203      -1.42888551      -1.07734623      -1.58258776
C      -35.48777629     -18.76081176      -1.58286344      -0.48962224      -1.28993320      -0.98038248       2.68018916      -1.47969733      -0.84601266
C      -33.32016685     -17.63295711      -1.64257078      -0.12899570      -0.35231626      -0.95929553       1.79261812       3.29196444       0.68281973
N      -33.41402959     -20.04930404      -1.86320667      -1.30405350       1.37469516      -0.61463806      -0.84790387       0.44441803       0.28367562
C      -36.11031765     -17.47987916      -1.45201041      -1.49823349      -0.19509430      -1.62621386      -0.87431139      -3.07028659       0.99737434
N      -36.21512029     -20.02949597      -1.65621035      -0.84248011       0.53092242      -0.50396585       0.54274957      -0.56319634       0.17932691
C      -35.38237891     -16.32889324      -1.77798654       0.04737865      -0.07392059       0.78713628      -0.02227110       1.21234387       0.30181644
N      -37.33593850     -17.55208161      -0.93022434      -0.46260497      -0.30156969      -1.28734341       0.09189697      -0.04433530       0.48837987
C      -33.93584794     -16.27929584      -1.74058313      -0.19439365      -0.66342988       0.50703370       0.11952541      -0.30882263       0.07813624
N      -36.16007862     -15.14872441      -1.67034460       0.17943509       0.42648054      -0.52384589      -0.67941392       3.53477078       0.29633074
N      -33.29487390     -15.07352595      -1.83349616      -1.18910598       0.17983082      -1.62816997       2.23827852      -2.22775307       0.55245600
N      -31.84790862     -17.61107914      -1.51959884       0.03194020      -0.23673155      -0.21336026       0.12842642      -0.93442290      -0.79088587
O      -35.71099327     -21.05706876      -2.20464240       0.28733797      -1.17795140       1.81966345      -1.29930426       2.29107840       1.10436520
O      -37.31680308     -20.08042734      -1.09657562       1.89502456       0.27906158       0.26808380       0.37828228      -0.43985016      -0.49181095
O      -37.41264265     -15.12851752      -1.81579385       0.94468405       1.10805500      -0.22114869       2.78676550      -0.54115932       0.41932901
O      -35.53989711     -14.04942507      -1.38946452       0.02526311       1.91991299      -1.63384245      -1.82771396      -2.24579367      -0.82898654
O      -31.19436675     -16.57760049      -1.42507678      -0.49977744      -1.47690486      -0.21988594      -0.98028262      -0.27717400       0.10807950
O      -31.26107327     -18.70597305      -1.57532953      -0.46135294       0.39385941       0.04812714      -0.27094728       0.60316793       0.27873005
H      -32.41376091     -20.02085195      -1.91369740       0.04959487      -0.12492518      -0.07798848       0.25394273       0.02855431       0.09210203
H      -33.96383150     -20.90536761      -2.05189381       0.18727752      -0.29782309      -0.09030424       0.34877434       1.30480690       0.34206492
H      -37.80901840     -16.71015278      -0.67987955      -0.02033365      -0.00620837       0.10782080      -0.35929035       0.08457823      -0.07269651
H      -37.58322186     -18.48616990      -0.52724406       0.07543764      -0.15130052       0.10571229       0.04274352       1.25582161      -0.80070880
H      -32.27404079     -14.88237358      -1.63561713      -0.19380647      -0.14026736       0.10711098      -1.79013989      -1.38702875      -0.48820396
H      -33.79069319     -14.23889693      -1.98884149      -0.15934639      -0.01974925      -0.22959775      -1.25915749       0.43117420       0.21234183
C      -18.85406529      -7.03561537       2.04353797       0.14757346       0.10321043      -0.55400056       1.09033344       0.53123903       0.85409024
C      -18.67918737      -6.03013263       1.03527405      -0.45959459      -0.71472267       0.50492431      -0.95316765      -1.78846555       0.72724289
C      -20.09864839      -7.09120772       2.76555017       0.93777932       0.80887518       0.85279047       0.41671177      -0.45025687      -0.43508545
N      -17.86077836      -7.84448531       2.39583382       1.74984583       0.62093485      -1.62896920      -1.17231931      -0.79962464       1.10791835
C      -19.85858059      10.54399482      15.90881096      -0.49533212       0.87033492      -0.16806103       4.89885960       2.20947282      -4.39395555
N      -17.55639161      -6.18255383       0.10669482       0.88845936       0.62038375       0.53262058      -0.75955995       2.58736712      -2.34206304
C      -21.10069130      10.20827144      16.28931273      -2.09247013      -0.39209454      -1.10206984      -4.35641409      -1.93988700       2.01704986
N      -19.50473229      11.59818392      15.08841092       0.19478863       0.44250966      -0.54357282      -3.94372977       0.16985078       1.43312172
C      -21.28553383      -6.67206866       2.11220948      -0.08884962      -0.42598340      -0.01906696       1.39061441       2.91009240      -1.16275560
N      -22.38345225      11.00061241      15.86329112       0.35627024       1.12086223       0.08185168       5.85522123       0.60504385      -1.33701920
N      -22.44626444      -7.20312795       2.33198479      -0.21803062      -0.90941158      -0.59478463      -0.40762589       0.24471009      -0.65859629
N      -20.23700735      -7.76669568       3.99206498       0.99160340       0.77687288      -0.98150845      -2.73566400      -0.00826979       1.26160962
O      -16.48489479      -6.70467625       0.40412412      -2.44443572      -0.69228557      -0.52870680      -1.37784550      -0.07763050       0.05069970
O      -17.71143236      -5.62748695      -1.05933014       0.60910985      -1.51118006      -0.62639218       0.67659551      -1.73314315       2.99534237
O      -23.44492472      10.52499028     -13.35293905       1.69449072       2.00225672       0.45302913      -1.43425944       0.40730958      -0.36100413
O      -22.10979381      12.04417485      15.20541786       0.94506144      -1.37508640       0.68394602      -1.98103075      -2.05484835       1.56464659
O      -19.38614811      -8.41177522       4.57332215      -1.30239880       0.58841123      -0.11336771       1.00302046       0.04764025      -0.59802690
O      -21.37512478      -7.62614769       4.54739916       1.16952325       0.88164044      -0.17570713       1.32767846      -0.42475529      -0.57520626
H      -17.78386335      -8.51320670       3.16381702       0.01665456       0.02873362      -0.31073116      -1.11269748       0.77563180      -0.39275939
H      -17.03794168      -7.78810398       1.89771159      -0.01851676       0.13505141       0.06413402       1.99094050       0.39511879      -1.22691820
H      -20.30355039      12.17974251      14.66337113      -0.21270593       0.46691726      -0.31067360       2.02447788      -1.40658499       0.98367760
H      -18.59916905      11.54886363      14.68503082      -0.02090937      -0.10215135       0.32477546       0.22475352       0.01973976      -0.47183499
H      -22.56777668      -7.74781359       3.14597265      -0.10491004       0.00156978       0.37690010      -0.19050866      -0.53489919       0.77415683
H      -23.19574300      -6.80192835     -27.65291005       0.11071471      -0.17759293      -0.38207039      -0.80394229       0.15699081      -0.10247729
C       -1.71856774      18.41578012       4.76968013      -1.41348668      -0.48142580       0.31342575      -2.52233160       1.75776057       2.29598181
C       -1.36462796      17.72555712       6.00436436      -0.10549822      -0.18091823      -0.69739923      -0.92437801       1.80789786      -3.64536474
C       -0.67857471      18.71240807       3.89182665       0.45087541      -0.33783517       0.17451332       0.25361238       0.10187093      -2.60409578
N       -2.99133101      18.97973749       4.59027624       1.35864020       0.06200416       1.09404807      -0.04359174      -2.04837504       4.41364904
C       -0.21638942      16.97461621       5.93077396      -0.32899939       0.21609860      -0.42197617      -0.05047525      -1.68767043       2.51094158
N       -2.45535093      17.35201466       6.87286694       0.22484918       0.80130985      -0.21879626      -1.21395779       0.29477288       1.90411938
C        0.84950961      17.32056081       5.10545847      -0.68096898      -1.11047843      -0.33111266       1.91081229      -0.02025191       0.34376018
N       -0.18654090      15.92947613       6.77113958      -0.21037040       0.88814228      -0.48913214      -0.47984007      -1.17384904       1.16420852
C        0.67508332      18.19801826       4.05786222      -0.49790806       0.43918129      -0.02580065      -0.17661825       0.57026256      -1.65746884
N        2.20123961      16.79694961       5.43020506       0.97449684      -1.47281127       1.67345740      -0.98804435       0.23155528       0.31304422
N        1.64253409      18.43960228       3.13678393      -0.17977875      -1.30031068      -0.45886389      -4.97142295       0.85717254       0.42349135
N       -1.11390150      19.22877347       2.54285765      -0.49886413      -0.02356366       1.36780110       2.43044189      -1.23336077      -1.34116936
O       -2.58988135      17.91719123       7.96306240       1.17756830      -0.44134548      -1.89961797       0.57335819      -0.64065846      -2.24621706
O       -3.22649377      16.49141181       6.45710453      -2.41655156       0.14660638      -0.47556112       1.01777346       0.10805585       0.14488261
O        2.23985663      15.75211443       6.07130275       0.26634746      -0.69731789       0.00662938       0.52213612       0.11453845      -0.32601219
O        3.19118802      17.45033082       5.15012544      -0.65079488       0.97222463       1.22523397      -0.41458929      -0.23218020      -0.32472059
O       -0.22343900      19.29418557       1.64120235      -0.56927919      -1.26217573      -0.34533608      -1.36085957       0.35840058       1.59226672
O       -2.27157476      19.41446204       2.23736493       0.60150148      -0.07524391      -0.92721239       0.10658202       0.41119312       0.55798248
H       -3.13923899      19.58965337       3.81422655       0.44790085      -0.12830827       0.40881151      -0.21870975       0.16191374      -0.10443560
H       -3.69599773      18.99388140       5.46679831      -0.26046836       0.51139363      -0.17413366       2.42951334      -0.10024821      -3.19849435
H        0.60484512      15.36826834       7.01547764      -0.03154946      -0.37711068      -0.10379053       0.50063349       0.42054314      -0.62021888
H       -1.02924170      15.58439572       7.20349799       0.25596278       0.27931044      -0.15010092       0.00383603       0.57012470      -0.18062939
H        1.29734808      18.84691703       2.29837107      -0.12898300      -0.26626510      -0.15071016       0.00700565       0.43279512      -0.58922549
H        2.53951042      18.25907598       3.27670115       0.15227126      -0.42022351       0.16987664       4.32608600      -1.15417917       1.07366573
C      -30.93993197      20.59009287      44.43722048      -0.33483073      -0.84157472      -0.37251401       1.17992725       1.81295488       1.85664768
C      -29.71057198      21.25540535      45.00970658      -0.49990714       0.41005507       0.25938194      -2.95989925       1.05021240      -1.07489392
C      -30.70848630      19.37548961      43.80353371       1.69693870      -0.80658803       0.11829065      -0.61178097       0.28060915      -0.43593961
N      -32.19034295      21.04317393      44.53674513      -0.69280341      -1.41213280       0.98387053       0.93505344       0.52769032       0.45659604
C      -28.44185276      20.73181715      45.09378456      -1.02531112       0.76856478       0.59376755       0.53043466      -3.33600961      -0.12240040
N      -29.86877655      22.66161564      45.18609954       0.99113349      -0.03682910       0.81746252      -0.99438483       1.42561307      -0.46660804
C      -28.37726478      19.32243854      44.66594412       0.30559308       0.89970429       0.91092019      -0.94427618      -0.99015100       0.64149074
N      -27.40645126      21.38369322      45.61171934       1.33897753       0.69302267       0.86153653      -1.84620705       1.42314038      -1.44777780
C      -29.55814526      18.64393552      44.09741794       0.93254667       0.87615013      -0.78530193       1.86090988       0.50968581       1.27448036
N      -27.29188832      18.49304278      45.07407078      -0.79224914       0.34738665       0.32945254       2.87973492       0.57775302      -0.80099870
N      -29.58947199      17.35077637      43.95159061      -0.21980848       0.04597473       0.46168166      -0.32959703      -1.38434363       0.49922087
N      -31.56417266      18.83152392      42.80966342      -0.42594774      -0.47805289      -0.50009393       2.03265151       0.17723001      -0.58193407
O      -28.87444143      23.41579737      44.99856521       0.88999289      -0.63738582       0.43515515      -1.72325521      -0.74956584       0.59584104
O      -31.02570950      23.08084016      45.37663590      -1.65506763      -0.26360894      -0.04271012       2.39503856       0.20966478       0.00073134
O      -26.26492838      19.02196225      16.08480258      -0.02367821      -0.41425838       0.74173066      -1.88117556      -0.01568494       0.27448271
O      -27.19784053      17.29240038      44.73160019      -1.25954820       1.00053964       0.04309428      -1.06574816       0.45632529       0.64029087
O      -31.02122121      17.90179242      42.18323855      -0.59903564      -0.57665734      -0.62095298      -2.73586738       0.66819037      -0.89325152
O      -32.59459924      19.40859262      42.50560375      -0.80580136      -1.05746858      -1.45234858      -0.42179116      -0.88656068      -0.18500080
H      -32.75639179      20.51240446      43.94185381       0.18991984       0.16764158      -0.55104761      -1.54053881      -0.49016100      -0.63813019
H      -32.57112731      21.86730278      45.01573129      -0.00110672       0.12895645       0.18566403       1.14581141      -0.62825961      -0.48139518
H      -26.60179873      20.87471515      45.88303148      -0.19880168       0.13268752      -0.06354908       0.86992587      -0.20362332      -0.26500764
H      -27.54556942      22.37205851      45.31245800      -0.08851338      -0.09923633       0.14824023       0.97367393      -0.55153304       1.28417858
H      -30.40462354      16.83510157      43.61174744       0.19892008      -0.31622413       0.04223567       0.95784588       0.82640935       0.17056977
H      -28.76328736      16.87906935      14.77502175       0.61398824      -0.08643951      -0.33659850       0.87730442      -0.63963082       0.16187938
C      -64.89024428      -7.86334615      -7.29561538       0.32850555       0.03424513       0.96585627      -0.67924925      -1.27168394      -1.09912853
C      -66.11074050      -8.56677207      -7.05192635       0.54213991      -0.88822324       0.20145237      -1.24512635      -0.00713646      -0.86612084
C      -64.41516071      -7.65061024      -8.67037248      -0.55687784      -1.35340321       0.28044018      -1.39481461      -0.92166400       1.06153135
N      -64.11488887      -7.68265379      -6.25448691       0.46343980      -1.18312247       1.92878999       2.30056264       2.40537977       0.44119356
C      -66.91223529      -9.16853461      -8.10049993      -1.73761405       0.40446106       0.21432998       2.02586017       1.40543307       1.51782228
N      -66.63105950      -8.69956729      -5.67023072      -1.63798563       0.08486577       0.71733261       2.74158920       0.97951075      -2.60145428
C      -66.43847948      -8.85235722      -9.37234642      -0.62256927       0.75335786       0.13282161      -0.29153343      -1.35091036      -1.64992425
N      -67.98511600      -9.87884303      -7.84728914      -1.11369089       0.11843904      -0.93636315      -0.62648130      -0.07888551      -0.61582144
C      -65.16928297      -8.26677229      -9.68249546       0.76883709       1.76183183      -0.18564196      -2.24752700       0.80250019      -2.05766649
N      -67.14803330      -9.53022881     -10.49214285       0.98693545      -1.24424444       0.01769426       0.17689097       1.23901605      -1.75724874
N      -64.85209041      -8.16987309     -10.99656688       1.28276550      -0.55101119      -0.67438294       5.38218045       0.57274672       2.71749851
N      -63.20369730      -6.98195186      -8.98878900       1.09906977       0.86652313      -1.58934007      -1.15679395      -2.80909660      -0.70797803
O      -66.44025419      -7.73802828      -4.95866201       0.32357240       0.69440959       0.99514999      -0.62001685       0.89699515       1.53013949
O      -67.06384685      -9.75013725      -5.33423128      -0.71013874      -0.56826723       0.74173510      -1.44572556      -1.71671611       1.04900984
O      -67.22281999      -8.93141234     -11.60789913      -0.83176663      -2.64161438      -0.19255137      -0.09080511      -1.40952820       2.39997542
O      -67.63891639     -10.63867430     -10.30281879       0.13556084       1.26408854       0.40004696       0.24599100       0.82895823      -0.36462036
O      -62.72051538      -7.11294943     -10.10045737      -0.47294777      -1.27072504      -1.08275357       0.48104480       0.35899319      -1.44881079
O      -62.60350666      -6.46577148      -8.12189539      -0.92947048       0.91956953      -0.30055230       1.77253406       2.36795445       3.05505738
H      -63.29462021      -7.07325034      -6.38315648       0.00531356       0.25685533      -0.13784579      -0.74354889      -0.69770151      -0.04073952
H      -64.50146360      -7.63774863      -5.33967770      -0.04561918      -0.14263841       0.52569649      -0.22031611      -0.23868729       0.29424786
H      -68.40176899     -10.37381380      -8.60087424       0.40723979      -0.10546595       0.65820194      -0.24982065      -0.29133442      -0.45030388