1296
Lattice="-50.56834732756732 -17.351955853942673 11.71766247227894 0.0 16.799448127892443 13.028122873839749 0.0 0.0 -26.65867844962615" Properties=species:S:1:pos:R:3:momenta:R:3:forces:R:3 energy=-1487783.1273434302 free_energy=-1487783.1273434302 stress="0.0032649975125447514 0.0005859518680162362 0.0007568687875417225 0.0005859518680162362 0.004204603852909094 0.0024885850591052374 0.0007568687875417225 0.0024885850591052374 0.0023444580236132743" pbc="T T T"
C      -37.82875318     -23.09307139      -6.81218055      -0.10880317       1.08160922      -1.42153859      -0.88614643       0.13125461      -2.77300894
C      -37.63011617     -21.91353990      -6.00520536      -0.05093219      -0.28789552      -0.00059582       2.08926606      -0.43494575       0.34448552
C      -36.70251258     -24.00336258      -7.04263846      -0.98505176       0.95462775      -0.62972216      -1.84703907       0.75593239       1.79527555
N      -38.96476549     -23.26240379      -7.58725838      -0.88906333       1.57648148      -0.50832345       1.21806997       1.66907574       2.14322237
C      -36.40107440      -4.95450628       7.84000972      -0.52085882      -0.05288426      -0.32674407      -2.16454517      -2.37088034      -2.45645114
N      -38.54632210     -20.82209661      -6.04729992       0.45346100      -1.37483996      -0.88812310       1.91898523      -1.95149385       1.33409449
C      -35.49207153      -6.01447299       7.91292430       0.72547077       1.54483422      -1.11118605      -0.89478261      -0.75003367       0.18413793
N      -36.23076609      -3.87476600       8.47583414      -1.06286009       0.07275524      -1.53689285       0.94631496       2.46484723       2.20767864
C      -35.66321824     -23.98452942      -6.02337267       0.62434007       0.68027834       0.94120337       0.90539406       0.28131205       0.31623142
N      -34.62177885      -6.02023787       9.12528437       0.41899669       0.31906368       0.40905024      -1.09099917      -0.66787687       0.23051283
N      -34.81641256     -25.00155986      -5.91797334      -0.74875780       0.66863855       0.51753306       1.08225616      -0.53720799      -0.77133100
N      -36.90038189     -25.08913953      -7.99354026      -1.29792347       0.64944027      -0.78070913       3.82043805       0.47118821       0.62213912
O      -39.58402033     -21.10300702      -6.54855314      -0.06304886      -0.37950142      -0.46051254      -3.38866889       1.03499466      -1.41908751
O      -38.31397834     -19.75346919      -5.49679150      -0.01944194       0.35254922       1.13166904      -0.42514865       0.84776660      -0.16653845
O      -34.78266816      -5.39043633     -16.44240791       0.53647057       0.18199778      -1.20477891      -0.11007901      -0.77089560      -2.95956574
O      -33.76670577      -6.86913999       9.01341479       0.93578153      -0.38234020       0.43122808       1.63486311      -0.31354560       0.97412712
O      -35.93023491     -25.88887805      -8.07746962      -0.77499019      -0.92090273      -2.84172912      -0.68209915       0.30182370       0.18502612
O      -37.76231487     -25.12762940      -8.82293882       0.47991470       0.08822532      -0.28786317      -1.55209820      -0.13176741      -0.28134756
H      -39.14320530     -24.08384500      -8.12375125       0.14822071      -0.28251633      -0.09624148       0.45553026       0.17330322      -0.22435032
H      -39.56463827     -22.42488246      -7.61843302      -0.14477126      -0.26670877      -0.10415234       0.18722884      -1.16815808       0.01634885
H      -35.43712393      -3.75478815       9.09282123      -0.30902672       0.06751269      -0.25767397      -0.40787762      -0.09248513      -0.08828448
H      -37.04013803      -3.27370798       8.50088739      -0.09649421      -0.06968137       0.11904874       0.30652815       0.78737118       0.03086210
H      -34.53908058     -25.55678538      -6.72766764      -0.35449248       0.00214157      -0.08125063      -1.09621682       0.07725071       0.35207971
H      -34.07999568     -24.95418908     -31.90246804      -0.07490995      -0.17105307       0.18028778       0.01571280       0.24477246       0.35811764
C      -57.02601113     -10.64852684     -19.66021959      -0.47264624      -0.63947236      -0.08565276      -0.94201911      -1.73765180      -0.25965436
C      -57.38052590      -9.39971232     -19.12058367       1.47996956       0.40339816       0.13528956      -0.13945633       0.40460721       1.14825791
C      -55.67846119     -11.11590107     -19.88888010      -0.76320589      -0.64247145      -0.56356670      -0.79555720       2.15202842       0.81866585
N      -57.97096775     -11.51624153     -19.91056972       0.81409042      -0.31153087      -0.37676211      -0.47223354       0.15708635       0.00689633
C      -56.34680225      -8.47440280     -18.84679880       0.43504579      -0.07714927       0.46049649      -4.28295236       3.37699218       0.61070694
N      -58.72691370      -9.10227146     -18.58191848      -0.34188942       0.36344027      -0.22460021      -2.02687890      -1.64763524      -1.29875379
C      -55.07333883      -8.85248478     -19.05456785      -0.45463726      -1.00579244      -0.68825831       3.71539820      -1.33888324      -0.60639677
N      -56.73478046      -7.20326022     -18.48062879       1.41977018      -1.80840916       0.24453793       2.10262461       0.13461842       0.26333728
C      -54.69985316     -10.19234682     -19.42768793      -0.37280070      -1.45602313      -0.22392702       1.46457947      -0.85815798       0.53214109
N      -53.96568070      -7.91417448     -18.82055836       0.55610049       0.86639891      -1.25268412      -2.62314000       2.64064730      -0.44118761
N      -53.42431049     -10.62200876     -19.25020423       0.10225270       1.20074933       0.92380794      -2.18119334      -0.02810950      -1.03459072
N      -55.39616914     -12.46555161     -20.24558525      -0.25473714       1.22859499       0.22211804      -1.25552826       0.07200782      -0.00198362
O      -59.70430103      -9.82133600     -18.91502741       0.20989897       0.15288641       1.85724088       1.98237304      -0.06735067      -0.19582217
O      -58.98451202      -8.17265117     -17.85399841      -2.10373831      -0.36911672      -0.30447131       1.18633898       0.45590210       0.57558258
O      -54.15376255      -6.71888752     -19.09172864       0.02163485       0.49108271       1.51629275      -0.58959716      -0.68280677      -0.41843506
O      -52.95359638      -8.22873058     -18.29955213      -0.26852032       0.65944572      -0.25767385       2.48753048      -1.90327169       1.10158193
O      -54.24583276     -12.78123903     -20.39568474      -1.54123900      -1.02334492       0.04496214       1.84909435      -0.29704478      -0.27770757
O      -56.29340069     -13.29698970     -20.43453576       0.27525875       0.08104535       1.12452180       0.22691427       0.41259867       0.15267102
H      -58.88759587     -11.34927310     -19.64960785       0.05789461       0.06493248       0.28017176      -1.92707045       1.04886049       0.45140504
H      -57.78855736     -12.44190026     -20.14582260      -0.23126985      -0.01813538      -0.03132029       0.88182492      -1.38976240      -0.35511932
H      -55.97993676      -6.54656886     -18.29453897      -0.20719074       0.17748204      -0.11343990      -0.29502819      -0.41805118      -0.36111816
H      -57.64242504      -6.89219119     -18.13708778       0.38555552       0.04194498       0.01565260       0.30695601      -1.09768918      -0.46175875
H      -53.16634296     -11.42764815     -19.77022615      -0.27990307       0.01985153      -0.24317221       0.20911933      -0.56874004       0.02078546
H      -52.78251217     -10.01995824     -18.84728941       0.24168589       0.12120799      -0.63355979       1.35296070       1.11059329       0.66787832
C      -51.39275734     -14.44815025     -44.54150412       0.35649653       0.26526999       0.66841947       1.25911656       0.16278784       1.24726082
C      -50.36580642     -14.34593101     -43.47786897      -0.90780491      -1.81050904      -2.24544713       0.61060109       3.85533803      -5.45897344
C      -52.27669438     -15.53142922     -44.35751664      -0.06744845      -1.62943728      -0.98539147       0.04970431       1.18480290      -3.54386332
N      -51.51011714     -13.61825505     -45.57992797       0.40105838       0.66099796       0.62793973       1.14257834       1.17865854      -0.09361691
C      -50.38435523       1.75113040     -29.30287557       0.45202297      -0.94477379       0.21888268      -0.52930767      -2.19061474       1.49799405
N      -49.20288356     -13.42743634     -43.90858023       1.37530130      -0.07968367      -0.67593956      -1.71651026       0.12962692      -0.68346185
C      -51.56613567       0.98523197     -29.08763524      -0.80528921      -0.37809691      -0.12065264      -0.85545612      -1.05121559       0.05610916
N      -49.40161085       1.66695805     -28.41680791       0.12669215      -0.12853267       0.28707600      -0.08178182       1.27722832      -1.41598239
C      -52.51566129     -16.08825215     -43.11616855      -0.20917225       0.81988832       1.13987672      -1.27696038      -0.53920159       0.88822872
N      -51.83334287       0.28045604     -27.83708672      -0.24236622      -0.09896517       0.47952895       0.08570163       1.59756207      -0.27480752
N      -53.64620005     -16.81588244     -42.88824872      -0.19890930      -0.62244466      -0.34927132       0.95189487       0.23380903      -0.54351446
N      -52.96996228     -15.98152350     -45.57184313      -0.38074369      -0.47101133       1.20423468      -0.49843362       1.20142154      -0.03430947
O      -48.24074091     -13.36490608     -43.17890101       0.45583248       0.54729405       0.66534489       0.12907746      -0.02126270      -0.01127207
O      -49.28824860     -12.73510701     -44.98003001      -0.67584387      -0.13450975      -0.50155070       0.78255901      -1.37098278       2.72420213
O      -50.93676182      -0.25757280     -53.89870305       2.37400109       0.55358186       0.15511914       1.00685067      -0.60306131       0.35163485
O      -52.97068211       0.35664982     -27.40849989      -0.17354605       1.07597624      -0.21703485      -0.60960470      -0.27790971       0.45082283
O      -53.61964551     -16.99862868     -45.43834318      -0.51134913      -0.07012683       0.89006137      -0.16700092      -0.35413045      -0.91002919
O      -52.93771822     -15.33033734     -46.66380392      -0.00146310      -1.68365857       1.39775075      -0.12445129      -1.85804860       1.97237139
H      -52.23101151     -13.84614163     -46.24360633       0.00508970       0.22333420       0.04347869      -0.11309376      -0.28675939      -0.13880342
H      -50.73455524     -12.96369531     -45.85819759       0.03692453       0.27015194       0.26901775      -1.18491362      -1.28355155       1.06607214
H      -49.56218557       1.06652222     -27.68098886       0.17937257      -0.23104160       0.34690114       0.17239732      -1.19676564       1.94611910
H      -48.69873948       2.35658345     -28.46807774      -0.14190702      -0.36216743       0.16098317       0.88007872       0.35074935       0.16261343
H      -54.34050040     -16.87486406     -43.60524951      -0.05568182       0.06538846       0.07837227       0.23310898       0.00816850      -0.24895340
H      -53.97708062     -16.77405220     -68.62154738      -0.07083725      -0.18115657       0.31158110      -0.36549440      -0.15699459       1.06144854
C      -39.25483981     -18.81967844       3.43340347      -1.66081706       0.71736546       0.10355311      -1.61217798      -0.80004525       1.38534139
C      -39.22781374     -18.15537409       2.15456366      -1.70116349       0.14593939      -0.22724665       0.84947578       1.03522156       1.27170906
C      -38.24065753     -19.78716406       3.74494484      -0.48103332       0.00112032      -0.52053391       2.00962903       0.14335046      -1.72288441
N      -40.26423190     -18.58234498       4.34670386       0.85756287      -0.49467967       0.55739803       1.71839028       0.64588402      -2.82488649
C      -37.96149117     -18.06579251       1.49355006      -0.42878953       0.55303925       0.30074778      -0.58921811       0.66454101      -0.29959930
N      -40.34966370     -17.20012917       1.88735211       0.60775078      -0.34425705      -0.56876323       0.18047872      -0.27037126       0.32660775
C      -37.06547243     -19.12453778       1.69549752       1.10669314      -0.34013832      -1.07853289       2.22923767      -0.76362875      -0.47970738
N      -37.66372741     -17.00718631       0.73055888       0.38805751      -0.13515519       0.85277995      -0.78288091      -0.20920208      -0.80516173
C      -37.06616790     -19.95621821       2.83557133      -0.75160725      -0.18425415      -0.83158974      -3.96024922      -0.04894755       1.28436102
N      -35.91881731     -19.25032988       0.79533327      -1.46434368      -0.74227073      -1.25725710      -0.27217037       1.76704618       0.19540964
N      -36.24695868     -20.91989759       3.08400863       2.17324942       1.01903206       0.59688086       2.27864948      -1.90792323      -0.77307412
N      -38.36855218     -20.68585790       4.82605076       0.43758091       1.13598437       1.02868398       0.96609171      -0.48428397       1.60266386
O      -41.44088233     -17.76538644       1.97018642      -0.53749883      -0.57875730      -1.36782716       0.41830479       1.18280593      -0.27865791
O      -40.19754852     -15.98068434       1.66957718      -0.75636319       0.28831507      -0.26183955       0.00148858      -2.27256949      -0.03611572
O      -35.20079613     -20.21038288       0.78540226      -1.93104375      -0.52805367      -0.54860496       0.32532228      -2.06668517       0.51424682
O      -35.64496437     -18.30194494       0.06817190       0.43916452      -0.35816877       0.82462992      -0.32048420       0.71590626      -0.58579193
O      -37.56562447     -21.58227576       5.13562469       0.82220890       0.62193194       1.61167861       0.44131205       0.47198678      -1.25407563
O      -39.30026348     -20.54989881       5.58140329      -1.43649253      -2.20467055       1.95721248      -2.19800475       0.66300549       0.63460590
H      -40.36116431     -19.07850977       5.19977152       0.07458311       0.24868734      -0.09566510       0.20210096      -0.46190773       0.22882198
H      -40.97100002     -18.00388951       3.96264058      -0.23454824      -0.04183214       0.28895718      -0.83798958       0.23988502       0.41884874
H      -36.96748166     -16.93492434      -0.02201872      -0.29549739       0.37334461      -0.25915226      -0.47081324      -0.75070163       1.03702712
H      -38.40019068     -16.34578117       0.71437783      -0.09222756      -0.17994929       0.14049197      -0.47979499       0.71176387      -0.26754141
H      -36.33423828     -21.55082985       3.90673583      -0.15066674      -0.11498268      -0.05099052      -0.42415945       0.97210737      -0.88843129
H      -35.66026939     -21.21032773       2.28494508       0.20129141      -0.33664675      -0.05636554      -0.20970173       0.43789639       0.89626245
C      -17.98501424      -7.30387221       6.05739630       0.22681370      -1.24949508       0.72808550       2.19380246       0.62317499      -0.89171420
C      -19.14506275      -6.67179893       5.49758695       0.37619748      -0.41589619       0.83850650      -0.26091339      -1.69028505       3.16747100
C      -17.84361949      -7.54281455       7.51473748      -0.44133311      -0.37149763      -0.95693593       0.09532985      -0.30784578      -2.11045326
N      -16.95633009      -7.57489562       5.22082542       0.95764092       0.22486393      -0.85442914      -0.96584521      -0.96846054       4.08442666
C      -20.31294992      10.16994164      19.34216345       0.57738448       0.34738604       0.22886790      -0.98080488       0.68227311      -0.75045687
N      -19.20238120      -6.29085419       4.17634996       1.15674371      -0.82574362       1.50888919       3.12672656       1.79993773      -2.01010127
C      -20.17021950      10.07697160      20.76016086       0.17122380      -0.29112572       0.45977849       1.57429113      -1.40846096       1.07522640
N      -21.44484209      10.39657777      18.65754905       0.42049402      -0.50350244      -0.52035292      -1.32786069      -0.57484714       1.59797532
C      -18.91487851      -7.18686027       8.37451283       1.19967929       0.27404071       0.79585235      -0.10368080       0.09014045      -5.25002576
N      -21.30481743      10.11047373      21.57129123       0.46683850      -0.45370345      -0.05036962      -1.49351127       1.03882550      -0.81182284
N      -18.74648691      -7.24972699       9.61842911      -0.11100075      -0.48407483       0.95384867      -1.85534155       0.79123618       2.45025990
N      -16.56592606      -8.13568510       7.97547524       1.11593225       0.04929007       0.64682339      -2.42946024       1.04660749       0.46037217
O      -20.17924769      -6.35685565       3.47197151      -0.48324348      -0.59657365       0.57146066      -0.81888819      -0.44605457      -0.45450078
O      -18.13135666      -5.77878289       3.71605350       0.39010091       0.85676367       1.04205244      -1.55081362      -1.16239421       0.60895331
O      -22.34017276      10.49554614      -5.63960457       0.89160234       0.96010028       0.53604764      -0.39827196      -0.23133234       0.42232927
O      -21.31554173       9.84571876      22.77809507      -0.79502272      -2.53122206       1.67429715       0.67185191       0.02734841       0.04355730
O      -15.75486243      -8.34429705       7.11333634       0.50000881       1.32466847       1.14989799       1.93946236      -1.04434533       0.42843643
O      -16.35853174      -8.38580871       9.16164613      -0.12669245       1.45199460      -1.03084829      -0.34983568       0.30413416      -0.28303224
H      -16.14716439      -7.99485335       5.71698762       0.15277561      -0.25584291       0.14083983      -0.53732641       0.50755757      -1.11830036
H      -16.98773693      -7.27194647       4.31741498      -0.23411925      -0.04264821      -0.15003805       0.03135944       0.82922136      -2.41380733
H      -22.39705807      10.49485160      19.09187727      -0.01866582      -0.29442108       0.19502695       2.21967126      -0.19234437      -0.40835900
H      -21.31206459      10.17808934      17.68056798      -0.01105986      -0.33336333      -0.11948732      -0.71362100       0.41145509      -0.14988695
H      -17.85123942      -7.34325399       9.95721908      -0.12241897       0.43801409      -0.17592320       2.01329691      -0.47526401       1.15227426
H      -19.48146475      -6.77512455     -16.57630950       0.10371002      -0.08192776      -0.18514598      -0.28358956      -0.19550115       1.46352143
C        0.36459403      18.86966401      -4.28584812       0.95867714       0.13807903      -1.95856458      -1.16785091       1.18367095       2.99736818
C       -0.04138107      17.49953833      -4.40597425      -0.10994548       0.51206063      -0.85429324       0.69956714      -0.15217090       0.98630904
C        0.96113251      19.46016511      -5.37052392       0.86693094      -0.82529839      -0.20354372       0.33424268      -0.96479449      -1.14797225
N        0.22445885      19.70119037      -3.15364667      -0.37583946       0.26229205       0.56142928       0.20790677      -0.95514918      -1.76834084
C        0.29114611      16.63907806      -5.53989628      -0.59733936       0.55548983       1.44214929       0.21177715       0.37795883       1.15943861
N       -0.68359521      16.88662250      -3.21361997      -0.46666693      -1.02168896      -0.54270913      -0.56359677       0.42937411       0.08297418
C        0.79236830      17.30958249      -6.70663339       0.63895216      -1.20812247      -0.69006817      -1.65450233      -0.70651347       1.11856924
N        0.29297757      15.28732362      -5.42506669      -0.95621199      -0.91767030       0.29386588      -2.03624610       0.75032217       1.16306123
C        1.05474226      18.68664955      -6.54086827      -0.36200392      -0.39390380       0.07929611       2.27802214       1.19764489      -1.09176786
N        0.81161583      16.61746927      -7.98970640       0.44606826      -0.06076896      -1.55548872       0.82204660      -3.86703001       2.82377372
N        1.70896736      19.30874297      -7.51408120      -0.61297513       0.59675315       0.56977405       1.33676941       1.55387395      -1.60269450
N        1.11422811      20.92492708      -5.45296696      -2.37502277       0.74254757       0.75376494      -2.58713574      -0.23139302       0.24354768
O       -1.55213366      16.03704733      -3.48601925       1.11358065       0.56516920      -0.68012193       1.05376125       0.50862209       0.83810162
O       -0.44502891      17.29104483      -2.05486771       2.35049394       0.55970826       1.34999062      -0.23552511      -1.00852865      -2.43065958
O        0.88212291      15.28762126      -7.84867656      -1.05416427      -0.25694490       1.89015732      -0.08062344       4.49374630      -1.99860612
O        0.82954657      17.19420025      -9.03478481      -1.18293818       1.14916587       0.48595115      -0.02027017      -0.04035513      -0.33048186
O        0.10037622      21.51035211      -5.10712905       1.23703552      -1.93774435       0.60400153      -1.05651050       0.38087072       0.82745522
O        2.00940183      21.55738320      -5.91516883       0.64793619       0.69946927       0.05117611       2.67127361      -0.42120025      -0.92017809
H        0.09830310      20.70192305      -3.28180927       0.51414593      -0.07997325      -0.05653842       0.26248897      -0.85906514      -0.42867604
H       -0.26129115      19.39018296      -2.35394790       0.26437963       0.17207546      -0.35664475      -0.19582671      -1.00262955       0.51817406
H        0.33485845      14.86776019      -6.32223286       0.18304531      -0.10541549       0.03070564       0.42001940      -0.59298827      -0.81775081
H       -0.44680261      14.86289421      -4.83993724       0.18549025      -0.03707611       0.05745154       0.91599903       0.79272411      -0.14016818
H        2.30635189      20.15352998      -7.31492562       0.00245974       0.19287709      -0.31434120      -1.33870629      -1.49839463      -0.56841596
H        1.64263858      18.91733035      -8.44430623      -0.01635914       0.27960335      -0.21182478       0.28203230       0.24601326       0.10246430
C      -34.28464255      24.42289661      39.10024934       0.79990893      -0.80115645       1.09415905       1.63194980       1.53867865       1.08457414
C      -33.66078857      24.74237042      40.35701850      -0.98048903      -0.18110349      -0.01652057       0.82940528      -1.76030165       1.73153150
C      -33.98690217      23.15467673      38.50577771      -0.10179249       0.47476891       0.80488755      -1.31333128       3.32646097       0.11228251
N      -34.89561101      25.43952839      38.51399728       0.87943088      -0.67228492      -0.47702022       0.70390619      -0.39738340       1.07464489
C      -32.86653918      23.70584563      41.08806530      -0.96496652      -1.25451839      -0.00073006      -1.80766114       1.42536797      -1.03515302
N      -33.97024065      25.99471541      41.05924977       0.34160894       0.50310332      -0.59584354       2.71849248      -4.84816070       1.15595586
C      -32.89458631      22.42745892      40.48063795       0.15875772      -0.58903780       0.11269335       0.66810644      -1.30816155       2.24134770
N      -32.29840822      23.95491739      42.26888362      -0.49996821       0.17404735       1.07330164      -0.26883388      -2.00207115      -2.88425043
C      -33.55939735      22.14389486      39.26888690      -0.56612803       0.36117015       0.79236323       2.24179344      -3.95526784       1.31747427
N      -32.39842696      21.27077261      41.31166375       0.71789169      -0.81852938       0.48113567       1.51941978      -0.60093115      -0.44806048
N      -33.63241611      20.87363796      38.84041388       0.55252751       0.08505089       0.19308552       1.35930738      -0.83508952       1.57237077
N      -34.39560264      22.93259778      37.21260589       1.75520413       3.02451827       0.85413982      -0.41709505      -2.38091531      -1.61800300
O      -33.57180961      26.13983101      42.19196389      -1.08537447      -0.07249525      -1.58679171       0.65049089       0.21005805       1.39515142
O      -34.62477042      26.80098982      40.53672894      -0.91837414      -0.27587905       2.22267557      -3.09248880       4.43485264      -2.39275706
O      -31.46691135      21.48526568      15.48329203       0.18872016      -1.25812814      -0.52447663      -1.75126936      -0.02160222      -1.20867425
O      -32.77427261      20.10757238      41.08200875      -1.02716794       1.58573599      -0.31890171       0.66237540       2.38909758       0.90469881
O      -35.35676460      23.56361998      36.82424420      -1.76164775      -1.87310477      -0.69526137      -0.50470464       0.70417514      -1.20554511
O      -33.88341722      22.01084535      36.54024094       0.29854501      -0.18457720      -2.40561705      -0.34730108       1.61073907       0.47835916
H      -35.29895904      25.20316273      37.66288854       0.12194728       0.09601424      -0.33286713      -0.96836801       0.42954069      -1.58880851
H      -34.80318781      26.32653348      39.04417692      -0.11987484      -0.34567283      -0.30851092      -0.73067531      -0.52386971      -1.24297411
H      -31.61792695      23.32882691      42.55281759      -0.20506790      -0.15119365       0.17546964       1.13068957      -1.37621024       0.86629533
H      -32.55266109      24.74091918      42.72408410      -0.16674164      -0.10413094      -0.55303629      -0.57402454       2.94576645       1.65501811
H      -34.22549971      20.65535284      38.10155837       0.27169746      -0.23864939       0.19609630      -0.54182710      -0.13985788      -1.02643515
H      -33.17949999      20.05956323      12.67495479       0.10123296       0.35604685       0.60752574      -0.96044193       1.73944374      -0.44655956
C      -73.67239808     -12.26662498      -0.10599339      -0.09591671       1.71657251       0.98661284       2.43083461      -0.54186153      -0.57003147
C      -75.02918493     -11.96479094      -0.32794887      -0.73146767       0.06085344      -0.13610585      -0.94560171      -0.29643638       0.14228079
C      -72.71431173     -11.68080551      -1.05388002      -0.61847545      -0.35589658       0.62653621      -2.86123412      -0.05236847      -0.63316194
N      -73.18721119     -13.11522023       0.86110846       0.29199103       0.58081223       0.88150156      -3.48279794       2.28191265      -3.58925707
C      -75.53813100     -10.97102240      -1.22111443      -0.55933795      -1.78393789       1.48943816       1.81054794       1.32734740      -1.00848045
N      -75.98427301     -12.76648547       0.35986859       0.77626818      -0.63560278       0.29588190       1.15652854      -1.82612911       1.42084221
C      -74.63457173     -10.40667190      -2.17857716      -0.45161277      -0.26873377       0.28864897      -1.13700123      -1.79775383       0.34848294
N      -76.75115259     -10.49758251      -1.18552782      -0.53063548       0.90424379      -0.77851333      -0.71427980       1.66833774      -0.92670819
C      -73.30409250     -10.93711807      -2.17362200       0.11050857       1.05798565       0.83489762       2.22377806       2.85520424      -0.23918511
N      -75.24280153      -9.53690983      -3.23308509      -2.38052935      -0.22067329       0.30678763       5.27712795      -1.79546442       0.05646534
N      -72.47884123     -10.33237700      -3.05388870       0.50674759      -0.57181158      -0.63734648      -0.54086922      -0.38248360      -0.54532246
N      -71.33473652     -11.51476970      -0.71631996       1.02748420       0.08166065      -0.13035600      -1.31978370       2.12797933      -1.15230100
O      -77.15580891     -12.46691516       0.45154690       0.09526313      -0.30811757       1.62373924      -0.82197414       0.49654615      -0.20639549
O      -75.53937051     -13.79899782       0.88712619       1.61324551      -1.34229084       0.77557175      -1.10458304       0.73881304      -0.34633409
O      -74.55898414      -9.38697576      -4.27858037      -0.77286243      -0.78263405      -0.19745581      -1.28712146      -0.21493741       0.76033961
O      -76.23139905      -8.95324008      -2.99834990      -0.26857448       1.56235316      -0.09272277      -2.39510220       1.90670811      -0.58124102
O      -70.59124142     -10.81602610      -1.39121043       2.66037936      -0.83038517       0.67131290       0.30878887      -0.12121223      -1.37081268
O      -70.99794036     -11.87005745       0.36137120       0.76433652      -0.13311278      -0.55577454       1.30160173      -1.91852284       2.86798276
H      -72.25826795     -13.16380030       0.85485151      -0.03264809       0.33135017       0.01315727       4.38659739      -0.19852685       0.57734754
H      -73.70459028     -13.24650052       1.65209136      -0.01789049       0.23808759      -0.03533503      -1.42443835      -0.93597435       1.94136191
H      -77.06580985      -9.59886744      -1.57143249       0.01130276      -0.34570836       0.38734949       0.97816065      -1.09344049      -0.21220660