1296
Lattice="-43.499705995665366 0.3518249135280021 29.0284543928242 0.0 17.396970173572893 3.885278588914192 0.0 0.0 -26.878462272007276" Properties=species:S:1:pos:R:3:momenta:R:3:forces:R:3 energy=-1487788.1649819328 free_energy=-1487788.1649819328 stress="0.004402524208330441 0.0003788451016648911 -0.0007142004132149757 0.0003788451016648911 0.003617278636737654 -0.0011682694074201484 -0.0007142004132149757 -0.0011682694074201484 0.0027396652729290067" pbc="T T T"
C      -30.64344298      10.88462040      19.96294729      -0.98603142      -0.76086458      -0.33760745      -3.15583256       0.59259101       1.81409117
C      -31.97583281      11.21636504      20.56122113       0.22450670      -0.16739188       0.03022133       1.30368213       0.53150609      -0.71518441
C      -29.76370357      11.98807124      19.66789248      -1.16845840       0.50125895       0.20035983      -0.77262940      -3.86791364       0.16067414
N      -30.42754187       9.56822928      19.86440661      -0.63603848       0.02828084      -0.37085175       2.35866584       2.71963023       0.14148248
C      -32.24288599      29.94274244      24.91873168      -0.07973483      -0.17546120       0.20350801       1.63798173      -1.25966116      -2.26190521
N      -32.95826337      10.17683239      20.74557408       1.51926324       0.12510205       0.34465017       0.81404017      -1.77364408       1.94168167
C      -31.36951799      30.91277615      24.36175688      -0.13003603       1.34192746       0.49642901      -0.57211314       0.50074787       1.13766613
N      -33.31837143      30.21875893      25.58065976      -0.41783020       0.75130195       0.13548917      -1.92247995       0.86617566       1.36694501
C      -30.28034792      13.29402240      19.66225351       0.65419604       0.89224579       0.67837587       0.70897214      -0.00455581      -0.15974472
N      -31.68465151      32.27409939      24.62340672       0.98764983      -0.40645611       0.18956393      -1.78784062       0.96558858      -3.30674229
N      -29.63320456      14.21803532      18.99489249       0.46489800       0.00503426      -1.18991416       1.05702360       2.06400220      -2.73349973
N      -28.50944508      11.59110522      19.16777483      -0.39176765       0.06480066       1.24459316       3.55228967       2.90044135      -2.52039853
O      -33.60441819      10.07747613      21.82290822      -0.27656101      -1.24222394      -1.20249772       0.40464209       1.38915383      -1.61311327
O      -32.97966599       9.24800897      19.94815623      -0.41687959      -1.56946589      -0.57374568      -0.38501717       0.61878615      -0.25181702
O      -32.02146034      32.62389043      -1.16387480      -0.59085982      -0.97906133       0.28594973       0.70925869       0.20742585       1.60780171
O      -31.84200964      33.00757168      23.60692655      -1.00440667      -0.48855021      -1.49594731       0.94190498      -0.46944050       1.36899464
O      -27.86474806      12.38586251      18.37713242      -0.69827432      -0.98339008       0.14421932      -1.92802061      -0.31033005       0.89082269
O      -27.90789513      10.59314953      19.46233322       0.24568457      -1.06995338       1.26228952      -1.21587799      -1.73669289       1.22104758
H      -29.53802121       9.29552731      19.58818089       0.10215349      -0.03781393       0.05133007       1.73042205      -0.53839224      -0.56393539
H      -31.13394591       8.97205643      19.64487770       0.12168565       0.11196520      -0.06966503      -2.33451272      -1.65410492      -0.35131400
H      -33.66075128      31.15927020      25.78541416      -0.09791213       0.05288484      -0.12676500       0.38897349      -0.52605974      -0.29438911
H      -33.93077049      29.45382270      25.81461616       0.32116605       0.26822742      -0.19621012       0.01383110       0.09062326       0.18770445
H      -28.85623337      13.89148001      18.39092052       0.10328134       0.07695977      -0.17485317      -0.53365217      -0.17939951       0.95317993
H      -30.02252732      15.08605242      -8.31443716      -0.05142917      -0.35572074       0.07301812      -0.13031773      -1.20643786       1.60909831
C      -46.02228674       0.57741469       2.86113620      -0.06938241      -0.03646967       0.72777839      -0.24852060       2.70336435      -1.10585946
C      -44.82887072       1.05676989       2.28064641       1.66492555      -0.15722257       0.43238459       0.00994007       1.04338812       0.08773922
C      -47.01249489       1.62123485       3.03290509      -1.33517255       0.71315575      -0.52072809      -1.67256239       0.66588766       0.27327811
N      -46.40920814      -0.67661953       2.96053022      -2.00823246       0.35596176       0.07168371      -0.82464532       0.37126173       0.94749448
C      -44.59766080       2.45715189       1.95477860       0.36640077       0.22753368      -0.74279801      -1.27938309      -0.31197145       0.31522475
N      -43.86191287       0.08740069       1.88022259       0.86644870       0.20336587       0.88211086       0.25711126       1.10273987      -1.81120763
C      -45.47804056       3.46638645       2.50616776      -1.33287789      -1.93964269      -0.60455042      -1.14532915      -3.52013060      -0.08084165
N      -43.62869693       2.74855061       1.12539314       1.10526519       0.03287623      -0.14027024       0.84949479       0.83792158      -0.51549317
C      -46.80222050       3.05832203       2.80650195       0.17334882      -0.34083515      -0.76610935      -1.11391076      -0.92820655       0.72414345
N      -45.22570896       4.81948721       2.35983501       1.46049151       0.50890577       0.69309761       0.82063508      -1.07198717       1.15142794
N      -47.80110715       4.01076804       2.88537071      -0.49611890      -0.16181775      -0.52593378       3.98696739      -0.18206615       0.05670777
N      -48.43626030       1.18373348       3.21245689       0.85422404      -0.44557206       1.63131866       0.02520584       0.93868384      -1.52136134
O      -43.35044863       0.22536992       0.70523604      -0.66338046       1.41543297       0.60919648      -0.50818487      -1.25574389       2.79215421
O      -43.62237112      -0.78797723       2.68126777      -0.43004323      -0.52085161      -0.31399570       0.50817669      -0.65145036      -0.85815015
O      -45.47803500       5.53514755       3.31210788       0.66669954       1.05254957       0.35659161      -0.40573425       1.17748210      -0.03639574
O      -44.65268795       5.13012464       1.35316467       1.16921706       0.48596036       0.52649493       1.01175383       2.05243316      -1.63964905
O      -48.72116297       0.12700796       3.79221344       0.87679202      -0.12615337      -1.32744767       0.21409219       1.20769655      -0.31276677
O      -49.30350591       1.89406558       2.64990603       0.43533371      -1.61636387       0.55969202       1.05534261      -1.10254327       1.52924919
H      -47.25913643      -0.71450328       3.51597263       0.21687307      -0.11285967      -0.40144073      -0.06175633      -0.94320980      -0.19292621
H      -45.79864850      -1.43879669       2.91485949      -0.10227218      -0.26192216       0.38457183       1.01067578      -0.79373360      -0.06214221
H      -43.54459320       3.69662646       0.76270069       0.51604690       0.25661978       0.18460070      -0.02666792      -0.79084350       0.27694001
H      -43.23095550       1.94185390       0.66095585      -0.28361714      -0.02766882       0.15675821       0.22835693       0.37853444      -0.10047806
H      -48.74885485       3.74387712       2.81145974      -0.30839923       0.17965676       0.21973427      -0.72355987       0.04380719      -0.20554579
H      -47.38086056       4.95867530       2.80991427       0.04872974       0.15621313      -0.12142434      -1.81794124      -1.03841273       0.23162006
C      -43.09041620       2.49482593     -18.90091191      -1.36878139       0.74827779      -0.53221653       0.72800479      -0.40534273      -1.99169211
C      -43.77702497       3.70398288     -18.56894235       0.57200943      -1.08501587      -0.48424234      -0.20412141       1.39439527       0.29676171
C      -42.85503187       1.58471644     -17.84730306      -0.14808468      -0.21622824       0.78100150      -0.71667568       0.03487139      -1.00577252
N      -42.65601614       2.21048593     -20.18429369      -0.03283325       1.29224183       0.89780446      -1.57916112       0.56850736       1.60866739
C      -43.72395568      21.62986819     -13.34377839       0.85083751       1.74124296      -0.13761052      -1.35577638      -0.83101905      -1.65920978
N      -44.58116306       4.45980170     -19.58131925      -0.23207074      -0.72509922       0.53206669       0.36110181      -2.93283668      -0.48687051
C      -43.16932525      20.76259646     -12.33595140      -1.71727875      -1.16401958       0.16887934      -0.66116500       0.65824785       0.27070267
N      -44.38238713      22.78089688     -13.15564780       1.37447242       0.07941501      -0.85457363       0.75660698       0.54114692       1.49106336
C      -43.03140648       1.96686723     -16.51459317       0.06201677      -0.36595266       0.03464259       1.26307559       0.50010383       0.33027360
N      -43.08387040      21.18410980     -10.92780385       0.00237405      -0.98153697       0.42427766       0.76478384      -1.35129868       0.36315446
N      -42.86165982       1.12472335     -15.51442127      -0.58257734       1.33253854      -0.30450478       0.25431608      -2.95666665       0.09662524
N      -42.32128253       0.25984991     -18.20297941      -0.29089828       1.01547389       0.03589109       1.55601595       1.57238014       1.29201411
O      -44.76824294       3.80999970     -20.62400138      -1.54163415      -1.24259548       0.59552902       0.54203862       1.02060657       0.36573680
O      -45.14685961       5.52796868     -19.39268821      -0.77302923       0.31863464       0.02503866       0.30924503       0.15161555      -0.31537661
O      -42.28379567      20.60581812     -37.03006727       1.51382782      -0.14986594       1.27564925      -0.81382270       0.53826713      -1.37614638
O      -43.81713505      22.04941448     -10.51055511      -0.55228573      -1.30545823       0.52155293      -0.53581609       1.04905647      -0.30959489
O      -41.29174888       0.35959880     -18.90353042      -1.10870777       1.03569998      -1.38666745      -1.27857802      -1.47220155       0.23511603
O      -42.73883618      -0.74553427     -17.65002905      -0.12104501       0.54349113      -0.57132816       0.34201439       0.50205323      -0.88262446
H      -42.09718452       1.35247624     -20.28485665      -0.24119657      -0.14981550       0.04133375      -0.63554482       1.06809602      -0.48055357
H      -43.21242084       2.72957696     -20.89091149      -0.06649258       0.35766072       0.37262012       1.05495166      -0.97146681       0.41642589
H      -44.20712086      23.18497868     -12.28241466       0.01114104       0.58362898      -0.00820590      -0.01683073       0.38191519       1.44485830
H      -44.71062502      23.45344689     -13.84092966      -0.47278745      -0.04725863      -0.32110411       0.42129279      -1.05246632      -0.27176595
H      -42.60295378       0.11363305     -15.60962693      -0.39471995      -0.33826777       0.00119655      -0.60977502       1.71113851      -0.25505314
H      -42.93290899       1.46750749     -41.46983943       0.27299245       0.38383868      -0.28503901       0.25812792       0.20243161       0.68723700
C      -34.37653109     -10.88905358      14.17985587       0.71491259       1.12537801       1.06500472       0.45877638      -0.53900028      -0.16979048
C      -34.73397076      -9.50759054      13.87208605       0.66075663      -1.05123080      -0.01617478      -0.21273907       0.23110889      -1.14634613
C      -35.20186789     -11.74739840      14.99579686       0.27156190      -0.90378325       0.94106447      -0.35560113       2.13520909      -0.27434325
N      -33.24452921     -11.43687137      13.69596551       0.65160264       0.82570031      -0.58240247      -1.16059289      -1.57308429       0.65645929
C      -36.01805146      -8.99446290      14.20346879      -0.59635802      -1.11810271       0.27334512      -0.43955275       2.10517528       0.76051920
N      -33.83265213      -8.62804599      13.06097301      -0.70832611      -0.65489668       1.10086122       0.28812298       0.88254648      -0.93030975
C      -36.77059140      -9.80595110      15.08646926       1.32339261       1.02436992      -0.15163177      -0.41600104      -0.40313760      -1.11111953
N      -36.45531321      -7.71606840      13.86187505      -0.58275002       0.05874961      -0.43490219       1.42542496      -3.52230839       0.16354813
C      -36.38996855     -11.10884873      15.47889597      -0.23721942      -0.25644914       0.07047308       0.40805123      -1.02516014       0.66911085
N      -38.05854352      -9.35121096      15.55906530      -0.75954167       0.61942876      -2.65243004      -0.81473475       0.73934027       1.10933299
N      -37.11914131     -11.74814105      16.36524618       0.72764098       0.89866068      -1.78376753       0.14897574      -2.14887707       1.85748129
N      -34.91282739     -13.19361295      15.30530473       0.76592243       1.76087390       2.02003195      -3.44636513       3.65578543       2.83491184
O      -34.22151978      -7.63722524      12.34125159      -0.14447619      -0.61522659      -0.03207058       0.04863089      -2.93019822       1.95578121
O      -32.63629209      -8.89122363      13.09463445      -0.74046377       1.47847643       0.46396768      -0.74614509      -0.23166753       0.06467945
O      -38.06421546      -8.19646107      16.02446201      -0.72235627       1.01412565      -0.96640526      -0.53037172      -1.33407949      -0.76605678
O      -39.06802555     -10.10205810      15.58309386      -0.10885976      -0.62904051       1.39449507       1.74925618       1.35783423      -0.13382152
O      -35.39827855     -13.70235315      16.30395930       0.06123327       1.07013650      -1.05417597      -0.22846434       0.45057918       0.50640596
O      -34.29576764     -13.80919414      14.55201236       1.18343863       1.32016724       0.71628471       3.73755081      -2.50578020      -4.12564302
H      -33.28380101     -12.49613949      13.80759067       0.24212404      -0.08823887      -0.07084189       0.70803494       1.94529012      -0.75592312
H      -32.82827054     -10.92332926      12.95158374      -0.11732012       0.10986243      -0.13762636       0.78426193      -0.28261840      -0.20629910
H      -37.22716485      -7.34785894      14.34619567      -0.02309606       0.19646778       0.22738651      -0.66118599       0.58255139       0.36054973
H      -35.87770825      -7.17327173      13.25969643       0.10998525       0.33705632      -0.38058911       0.03053446       0.38691164      -0.14096984
H      -36.75737353     -12.52106858      16.94298033      -0.17569297       0.16773544       0.28318732       0.35801800       0.68752058      -1.25188030
H      -38.03259093     -11.54307122      16.64504803       0.21692978       0.21929528       0.00909706      -1.22270430       1.00514628      -0.17422413
C      -21.31532117      -4.63540367      -3.14762857      -0.06692852      -0.19485629       0.12992711       0.76942032      -1.38402466       0.25080955
C      -20.57222766      -4.40900741      -1.91550662       0.72539444       1.44306166       0.18597717      -0.31804145      -1.12764079      -1.08120751
C      -21.34496153      -6.01727730      -3.62837022       0.15526514      -0.00926345       0.05678910       0.41285949      -0.11291487      -0.55638204
N      -21.91202258      -3.66869141      -3.82190830       1.35314797      -0.50015627       0.22357533      -0.82464445       0.87856080      -0.33388678
C      -20.04405272      11.84889435       2.70677268       0.56450941      -1.80574507       1.58535748       0.54031585       0.61050751      -1.06914537
N      -20.13140454      -3.08501138      -1.69175059       0.61349549       0.32817476       0.51778826       1.43702308      -1.25355084       3.80773379
C      -19.81612831      10.65046204       1.98194872       0.41211433       0.36713121      -0.88642567       0.65836141      -2.19803664      -0.74675185
N      -19.74541332      11.87822570       3.97979582       0.44239250      -1.30055100       0.62684391      -1.49216542       4.63230892       1.30037775
C      -20.47844946      -7.08505340      -3.10670886      -0.42296805      -0.60249494       0.78656896      -2.12340274       2.43807463      -0.97900335
N      -18.86242216       9.68229491       2.45783114       0.16839685       0.25696761      -0.84254548       1.27763320      -1.49215294       2.07376313
N      -20.39063504      -8.23659369      -3.73302291       0.84836682       0.67758028      -1.04480196       4.38783128       0.59697807       5.73404531
N      -22.01413240      -6.33595444      -4.90813324       0.11992535      -0.56291540       0.97359417      -0.05755545      -0.12436487       1.81944342
O      -20.75516254      -2.16280573      -2.13825816       1.03964948       0.25530336      -0.53520871      -0.74149059       1.04311896      -0.70604017
O      -19.17876358      -2.88800137      -0.89092809      -1.34019272       0.16440115       0.58871508      -0.82745211      -0.63977508      -1.11722141
O      -18.76006537       8.46554955     -24.73572001      -0.44427892       0.81998669       1.32380979      -1.61004920       1.59785514      -1.32269623
O      -18.06723882      10.04869611       3.31824030      -0.95774048      -0.07070908      -0.51069869      -0.06143038       0.97898417       0.13647707
O      -22.34230521      -7.52948808      -5.05216553      -0.85056535       0.69410785      -1.12909328      -0.27988621       2.37569498      -1.10942038
O      -22.24385295      -5.40137860      -5.68625629       1.73944639       1.70157404      -0.46487412      -0.23555145      -1.70979342      -0.16392414
H      -22.32613149      -3.91076751      -4.71429422       0.17804897       0.32395538      -0.41358524       0.17045327      -0.00238071       0.28806062
H      -22.05686640      -2.70728955      -3.48637910      -0.03156932       0.03479917      -0.12404378       0.70694551      -0.96511873       0.04579392
H      -19.17857070      11.24999481       4.42159578       0.20576385      -0.19416754       0.34826550       1.47352660      -2.23938739       0.66806192
H      -19.95867642      12.71469792       4.58894790       0.28854944       0.17029175       0.59755383       0.21117734      -1.07668201      -1.59280301
H      -20.83601879      -8.44785420      -4.50034938      -0.16986934       0.26672060       0.05293232      -2.86166767      -1.11445463      -4.84933933
H      -19.68283720      -8.84792141     -30.22426156      -0.16699880      -0.24876066      -0.20295793      -0.21481454      -0.33150709      -0.02890587
C       -8.72190298      11.28217478      -2.16922118       1.16183457       0.92823165       0.47133787       0.84411518      -0.46657484       1.61986425
C       -9.45670904      12.07078667      -1.20365204      -0.06950947      -0.15007447       0.80710820       0.73316817       0.88638333      -0.78102527
C       -7.76495317      10.29797782      -1.71224608      -0.70027474      -0.30893522       0.13103254      -1.61377267       0.86830182       0.21915456
N       -8.73250530      11.49665370      -3.43253498       0.14598539       0.12180660      -1.00181245      -2.02229718       1.15693093      -2.62278715
C       -8.97076438      12.08692484       0.17053492       0.53633897      -1.31520926       0.52594148      -1.21830294       0.13744120       0.62691374
N      -10.20880279      13.23080597      -1.72103482      -0.57111643       0.48662350      -0.30781238      -1.54878454      -0.35885814      -1.27672023
C       -8.18724433      10.97556542       0.58756422       0.06305348       0.79503884      -0.78527824      -0.75439104       1.53827197       1.50691591
N       -9.46324510      13.01676482       1.02845526      -0.03539835      -0.84528196       0.25571989       0.07163278       0.10117772      -2.05941585
C       -7.59890143      10.05506705      -0.34345992       1.42418210       0.17262255       0.73678071       0.12590576       0.39718857       0.93679582
N       -7.97695003      10.91803660       2.08329215      -0.09079679       0.76585462       0.06400215       0.74417871       1.25251110      -3.56196580
N       -6.90796333       9.05868304       0.12504983       0.43864866      -1.15322346      -1.42732973       0.66019341      -1.72333994       0.85696520
N       -7.22521386       9.38485211      -2.61364695       0.93225096      -0.11893076      -0.89687592       2.34052757      -2.61228260      -0.38120362
O      -10.96820703      13.12127718      -2.78756619       1.56314377       0.88200796      -1.55426974       2.78894790      -0.09344438       3.21545170
O      -10.17504943      14.27852439      -1.07748298      -1.26059800       1.27087432      -0.34931841      -0.22190024      -0.78465219      -1.39586950
O       -8.14579243      11.95774388       2.72836375      -0.21180880      -0.52567752      -0.88917672       0.63419256      -2.05745570       0.81639845
O       -7.49227127       9.88582346       2.48438103      -0.21123745      -0.59830483       1.62154153      -0.17570298      -0.29414518       1.74750922
O       -6.24081803       8.69204165      -2.26712994       0.57254115       2.26160043       0.58524350      -0.11234912       0.73329369       0.85815332
O       -7.63756341       9.16924160      -3.73087281      -0.63978810       0.10111093       0.02814174      -1.51813896       1.09615016      -1.15148832
H       -8.22532086      10.96701662      -4.11841812       0.24532250       0.07377561      -0.02927113       0.29514198      -0.37290846       0.31863042
H       -9.48051639      12.03359504      -3.85679713       0.14873752       0.13257516       0.26739717       0.25695880       0.19391000       0.38459083
H       -9.04910738      13.22411951       1.92075167      -0.16836955       0.02441817       0.27926909      -0.16333893      -0.52569031      -0.27063260
H       -9.95893833      13.75053628       0.52989393      -0.12027211       0.02028801      -0.08109301       0.09453828      -0.07396679       0.58103357
H       -6.41735712       8.34740198      -0.43320681       0.31328364      -0.02388336      -0.04350561      -0.59103524       1.15791044       0.13091512
H       -6.95061025       8.99307132       1.13604758      -0.15904708      -0.32749905      -0.35521099       0.35653537      -0.21747061      -0.12673466
C      -21.91923523      37.37338057      32.07912390      -1.04920900       0.11482132      -0.44137917      -0.41467752      -0.24692317      -0.54879587
C      -21.88297838      36.12446416      32.68997062      -1.01158279       0.40236263      -1.17741905       1.79107876      -0.18807834      -2.49356162
C      -22.73642532      38.26897939      32.79193525       0.68355947       0.20796744       0.10454892       1.90027217       1.14840233      -3.07914303
N      -21.45461655      37.57478810      30.78436566       0.43748164       0.70426435      -0.65900322       2.10432985      -0.35290235       0.85026168
C      -22.64343449      35.75477514      33.73888442      -0.41645034      -0.06437817      -0.68832116      -0.49570588      -1.31959127       3.51947140
N      -21.33529934      35.00094987      31.83311399      -1.07062530      -0.34178623      -0.25586001       0.83395866       3.03287236      -0.07791681
C      -23.45058125      36.69671324      34.43179496      -0.41578503       0.21317472       0.80722548      -0.30082371       1.39622723      -0.63816745
N      -22.38275518      34.54029754      34.32402839      -0.16843968       0.99532424       0.77128675      -1.13935061      -0.96163985       1.29049263
C      -23.47053779      38.01954289      33.87719297      -0.00910726       0.81424377       1.04374697      -3.59449391       0.58074336       2.08822782
N      -24.43102400      36.34602182      35.45070413       0.61691518      -0.80070710      -0.49174266       0.47586478      -1.22211402      -0.19501642
N      -24.41113780      38.94966190      34.30450523      -0.02211986       1.03232132       0.96337828       0.51641566      -2.58734519       1.59780867
N      -22.83495256      39.55630589      32.11130502       0.81811402       0.95626629       0.53686167       2.31472568       1.40361416      -0.48760111
O      -20.18585936      34.97494837      31.42486845      -0.42656135      -0.36069635      -2.11440818      -0.15611740       0.44488127       0.75517705
O      -22.21591500      34.32873798      31.41559559       0.65129496       0.84102824      -1.33820645      -1.90654071      -2.14029331      -0.97581872
O      -24.96730645      37.19279693       9.29710833       0.20472691       2.05641270       0.49464117       0.84394732      -0.77632333      -0.73772042
O      -24.68234661      35.12977571      35.53240976      -2.21479228      -0.43304887       0.03953001      -0.23021614       1.11009077       0.48450658
O      -23.84896722      39.96510921      31.60399217      -0.00016256      -0.31457465       0.31430107      -1.00750356      -0.26814632       0.55581080
O      -21.75048458      40.16153284      32.00600585       0.03717406      -1.82733149       0.52952755      -1.11897199      -0.65725082       0.33279772
H      -21.20743304      38.52271386      30.53070290      -0.07215736       0.14016670      -0.06829379      -0.71318845       0.25047995       0.23452446
H      -20.54169641      37.09559922      30.58035596       0.04043485       0.10571888       0.07199430      -1.61911599       0.03551757       0.37044376
H      -23.01187074      34.27012600      35.08364125       0.28735281      -0.25884175      -0.00121364       0.27111697       0.70669175      -0.54587791
H      -22.20901329      33.70232273      33.81247274      -0.05839349      -0.03674123      -0.31834579       0.56020719       0.26897495      -1.00207146
H      -24.57796065      39.87505462      34.04440024      -0.03671516      -0.38820070       0.03539852       0.48446716       1.07996121      -1.07867563
H      -24.94373492      38.62804722       8.23245466      -0.21886508      -0.18060707      -0.06355675       0.16673720       0.33647315      -0.49051506
C      -60.13103115      20.46310246      15.13284316      -0.23744959       0.22714105       0.64855559       1.04025752       0.74016034       1.44994021
C      -60.14079547      20.46601167      13.69326920       0.98770719      -0.27421718      -0.15652091       0.93010783      -0.31403390       1.48924997
C      -58.84301621      20.82957744      15.80615969       0.09077843       1.77339641      -0.54946401      -0.05724468       0.18631683      -1.26901378
N      -61.26883004      20.30985270      15.92211379       0.11412205      -0.70452462      -1.45641861       3.50122613       1.08103622      -3.63055263
C      -58.96074396      20.67039088      12.87251491       0.10161305       0.01257810       0.30940859      -0.54571081       0.74900555       0.24573606
N      -61.41163384      20.47836603      13.02529899      -0.34989044       0.75906440       0.96921293       1.67642910      -0.36061797       1.66226667
C      -57.81439816      20.83491605      13.60108392      -0.22328020       1.00732591      -0.50349384       3.10478972       0.36192605       2.69803134
N      -59.02327931      20.67077241      11.51240301      -0.67922557       0.01168018       1.78894918      -3.18747597      -2.68591020       1.61517347
C      -57.65934621      20.97112519      15.06492530      -0.84697594       0.20120264       0.48389192       1.80543543      -0.42504109      -1.23909392
N      -56.49748609      20.74515306      12.93483770       1.20025395      -0.66393905       0.80982060      -0.35941937      -1.88906445      -1.96356610
N      -56.37099874      21.17703588      15.62350204       1.44214085      -0.33777192      -0.78286630      -0.91122388      -0.03566660      -0.76823259
N      -58.73876218      21.13679582      17.23444394       1.03062442       0.58781995       0.45322360       0.57032108       0.43753474      -3.22387009
O      -61.50921354      21.37556452      12.24926083       0.65139225       0.08776431      -0.30966061      -1.83256029       0.83493508      -1.64854512
O      -62.24755968      19.64790913      13.35802291       0.76306973       0.93202135       0.34807362      -0.83423388       0.10492803      -0.14979288
O      -56.37692384      21.42777698      11.89229355       0.70920252      -0.36940440       0.16115524       0.71020984      -1.27153953       2.07573812
O      -55.72310953      19.81348067      13.30875003      -0.59058830       0.29992791       2.27079465      -1.83365313       3.11024590      -1.11883986
O      -57.91023094      21.95326798      17.61940771       0.73273829       0.09604177       0.35275507      -0.20552995       0.09772773       0.22463737
O      -59.53888652      20.58718870      17.89737140       0.92114217      -0.14306893       0.75544238      -1.83424354      -0.82430656       2.91466623
H      -61.23227884      20.15690204      16.85919900      -0.03328747      -0.03082162      -0.02945337       0.50261700      -0.33598926       2.91765909
H      -62.06446062      20.16530072      15.42597785      -0.33527884       0.28894521      -0.45352049      -2.70232392      -0.65636596      -1.27414683
H      -58.54844301      21.03873858      10.76664806       0.12921483       0.19429397      -0.31595775       2.29960180       1.44659993      -0.70699428