1296
Lattice="-57.80815895889641 -22.97020192908066 14.955931951369369 0.0 16.373256745699653 7.978068235557216 0.0 0.0 -22.419442830680005" Properties=species:S:1:pos:R:3:momenta:R:3:forces:R:3 energy=-1487778.5034726197 free_energy=-1487778.5034726197 stress="0.0027580664794380843 0.0006357327968850085 0.0009255866121887497 0.0006357327968850085 0.0026975365563842247 0.0008597680562945159 0.0009255866121887497 0.0008597680562945159 0.004109064599710071" pbc="T T T"
C      -34.58473397     -23.04015141       0.00086220       0.12202373      -0.36008612      -1.02532294       0.03358382      -1.50703998      -2.91739388
C      -33.25274780     -22.86650689      -0.35512771      -0.25281067       0.08547222       0.22288563      -0.50389048       1.20399174       1.09388869
C      -35.43026207     -23.36284077      -1.11219670      -0.51677884      -1.28377249      -0.16740728       0.17917325      -0.18111673      -0.88861627
N      -34.81550751     -23.10288685       1.28243321       0.79446647       0.06751079       0.08297398      -3.39247154       0.28799436      -0.20236999
C      -32.72379252      -6.41283883       6.39894471      -0.46505500      -0.65478214       1.27656164       2.00413777       1.73548033      -3.91969937
N      -32.43922533     -22.27639021       0.67878552       0.67672226       1.90646224       0.59837027       2.42667606      -2.84241692       0.84998586
C      -33.48266411      -6.83804925       5.21049826      -0.33457568      -0.51190727      -1.79033924      -1.29121411      -0.01063299       1.88333355
N      -31.52774026      -5.69085195       6.25071480       0.66112138      -0.41172701       0.23322453      -2.39534780      -1.76972791      -1.03666323
C      -34.91645698     -23.48603704      -2.53584970      -0.92825522       1.33745050       1.17061909       0.27614315       0.57913454       0.67087588
N      -32.93027287      -6.82580636       3.87358719       0.13727940       0.30282495       0.65754652      -4.36917983      -1.37823030       0.92684193
N      -35.80389970     -23.78089960      -3.48533193      -0.75187456      -0.33556997      -0.91279197      -0.21333226       0.30829027       2.29820723
N      -36.82559145     -23.56874934      -0.82532299       0.35884591       1.21719468       0.41960948       0.70406280       0.34068319      -0.06628737
O      -31.46691993     -22.99709843       1.01306125      -0.49756745      -1.71327876       0.43145516      -0.77127115       1.16726077      -0.12749720
O      -32.71253350     -21.23893197       1.17977843       1.36368468       0.35343475      -0.21924672      -0.39391674       1.74572353       0.45205488
O      -31.80362051      -6.52298788     -18.72646149       0.19308593       0.18777544      -0.07655639       2.95182502       0.73097864      -0.69722517
O      -33.72416400      -7.18555645       2.96858733       0.16395705      -0.10816036      -0.74913861       1.00058872       0.66284779       0.44782988
O      -37.62622466     -23.78431066      -1.73312122       1.12738179       1.49399346       1.96080566      -0.36538456      -0.23541100       0.14094119
O      -37.18433322     -23.48914324       0.34150976      -1.40629160       0.81446596      -1.82707082      -0.25099242      -0.10373873       0.10822896
H      -35.71621819     -23.44590808       1.55955093       0.01180533       0.01029640       0.11732982      -0.14492739       0.04537970       0.25254194
H      -34.06085655     -23.23192926       1.84613372      -0.01672251      -0.20414946       0.24524471       1.90087153      -0.12332572       2.09350649
H      -31.01598219      -5.95039331       5.44659007      -0.18778077       0.22895075       0.28231221       0.50906969       0.09035468      -0.80120851
H      -31.01151738      -5.39305151       7.02362234       0.01783054      -0.10673351      -0.20762339       0.70145332       0.22798269       1.14348255
H      -36.75144462     -23.97045272      -3.09087724      -0.20444474       0.35538741      -0.38292148       1.05413423       0.26714604      -1.18921370
H      -35.50511012     -23.72866001     -26.84997681      -0.27411343      -0.21064544      -0.07897489       0.31602127      -0.38623507      -0.59259924
C      -60.75036667     -14.88846949     -10.08600775      -0.04837040      -0.64857870      -0.51904126       0.32570129      -0.46511151       0.54119895
C      -60.01097015     -14.49874513      -8.94636532       0.61545453       0.16847063      -0.86896145       0.33708275       0.05000988       0.32125865
C      -60.81259557     -13.91878947     -11.10443021       0.65730221      -0.33428043      -0.84414226      -2.13250410      -2.12546871      -0.23721171
N      -61.15273499     -16.19192762     -10.10691126       0.47918663      -0.07588678       1.01103619       0.73647609       1.06683464       0.65128530
C      -59.17207062     -13.36906752      -8.89665131      -0.08740852       0.37634312      -0.34478172      -2.09445747       0.92188950      -2.16186100
N      -60.04817545     -15.25927353      -7.70324175      -0.37758024       0.37121783      -0.74196580       5.25927302       0.36690749       0.50520000
C      -59.41416339     -12.35362352      -9.95232163      -0.34361607       0.73800054       1.72898916       0.75419753      -0.90648832       0.19839997
N      -58.30722700     -13.10029941      -7.98695500       0.59487814       0.70282620      -0.09951684       1.50680307       0.30557897       1.78109967
C      -60.10847103     -12.72424279     -11.09423269       0.55112354      -0.79592573       0.43729593      -1.25334934       0.44801314      -3.28165971
N      -58.64568654     -11.17058271     -10.09491416       0.41042744      -2.31907554       0.23415688       1.59178302      -1.17030688       2.80634207
N      -60.19015712     -12.04265166     -12.31515601       0.00507210       0.46396181       1.34337918       0.42882372      -0.59641281       1.56502367
N      -61.71943889     -14.26963664     -12.26188173       1.07938777       0.56316642       0.56448179       3.64318847      -0.19283228      -2.21767188
O      -61.02496722     -15.55621461      -7.16016196       0.67744507      -1.63621597      -0.09143173      -5.18415325      -0.94844727       0.81686671
O      -58.95579726     -15.48277255      -7.11696207      -0.60172141      -0.64412998      -0.58455755       0.00948247       0.35448928      -1.41014918
O      -57.72565223     -10.90331722      -9.32349574      -0.52540697       1.14678104       0.38974504       1.16088261      -1.15495081       2.42076142
O      -58.82168462     -10.39640055     -10.94114254       1.56553782      -0.15728291      -0.12060208      -2.33340810       2.87993008      -4.29868038
O      -62.80321380     -14.71336865     -12.09511175       0.68331921      -0.78513668      -0.20894063      -1.35986358      -0.39142477       0.97801782
O      -61.19467697     -14.23088122     -13.42942562       0.93227838       0.00789849      -0.98120068      -0.84523389       0.35113698       1.99498917
H      -60.58502211     -16.77946108      -9.47357710      -0.32645787      -0.02784488       0.13913615      -1.23235872       0.08313313      -0.92005729
H      -61.65809915     -16.58103256     -10.87920135       0.01747742       0.29881078       0.06197668      -0.03694219      -0.21912560       0.02557598
H      -57.86082348     -12.22794219      -8.25297068      -0.18455230       0.11965704      -0.13307542       0.75001721       0.11353856       1.08157432
H      -58.07201456     -13.72217834      -7.19125673       0.02650268       0.00714840      -0.14121180      -0.43109957       0.60675315      -1.15018810
H      -60.24983358     -12.66656195     -13.15559711      -0.06119914       0.36996650      -0.45036257       0.11827434       1.23686352       1.26888593
H      -59.79569721     -11.11039147     -12.23499646       0.01698533      -0.24509606      -0.37756252       0.00418550      -0.47231140      -0.95236189
C      -57.15022868     -19.86625748     -30.87933602      -0.41689436      -0.07907925      -0.55389456       1.94230789      -2.24246211       0.31938418
C      -55.82517048     -20.48852043     -30.80898963       0.55296858       0.56517081       0.36673335      -1.34097948      -0.47718405       0.91355163
C      -58.20912743     -20.64177796     -30.26433421      -0.53050888      -1.24490623       0.73917382      -0.54400967       3.91705508      -1.30082807
N      -57.28983518     -18.74743340     -31.52989307       1.16115844      -1.23356922       0.05312934       0.28621702      -0.97802044       0.43574196
C      -55.66420786      -5.49723895     -22.27513208       1.08935805      -0.06708575      -1.23808786       0.02428029       1.41282038      -0.59409970
N      -54.69886906     -19.59773401     -30.93266551      -1.19577579      -1.95210843      -0.06614673      -0.19131064      -1.15491871      -0.37104306
C      -56.85059436      -6.25298857     -21.90213713       0.15556828      -0.09344147      -0.30108037       1.18131436       0.26917818      -0.36370997
N      -54.45602239      -6.02142691     -22.23254718       0.08185432      -0.89714124      -0.07941758       1.21424744      -0.10218504       0.53556514
C      -58.09329261     -21.99053977     -29.99850236       0.61455607       0.95785174      -0.78712833       1.76918152       0.66255251       0.30198694
N      -56.81359147      -7.63077111     -21.51579479       0.96104995       0.17282452       0.07094609      -0.48929129       1.04492575      -0.35058251
N      -59.12860669     -22.65999098     -29.78894541      -0.89424421       0.91699735      -0.21997332      -5.83803608       1.44136972       0.50646071
N      -59.49104766     -19.97066952     -30.15675344       0.69257811      -0.03543894      -0.47673516       0.75668820       1.02634569      -0.44675983
O      -53.69465539     -20.02557457     -30.36125910      -0.70082375      -0.20981193      -0.10629435       0.71285522       1.66638669      -0.58209266
O      -54.74329363     -18.53400199     -31.59036252      -1.66271877      -0.50639932      -0.15071076       0.35070603      -1.61744125       1.08640258
O      -57.89633400      -8.26830735     -43.65749249      -0.06199921      -1.63661996      -0.25126288       3.57208944       0.25753622      -0.27047173
O      -55.68358239      -8.10071903     -21.52950969      -0.34891284      -0.96312851       0.94311395      -1.17721769      -1.63625829       0.83615943
O      -59.53380603     -18.74049722     -30.40786778       0.26935833      -0.20793849       0.46187920      -0.02919967      -1.22327701       0.07270096
O      -60.48303099     -20.54943449     -29.76332319      -0.52232013      -1.18631203       2.36124602      -0.59998704      -0.22254770       0.19290968
H      -58.25287860     -18.50137609     -31.48243580       0.25420310       0.33717091       0.13624579      -0.50038399       1.53451272      -0.60134508
H      -56.45101593     -18.39694771     -31.99612828      -0.22674272      -0.22526654      -0.28768554      -0.77752948       0.33530956       0.26511862
H      -54.26600832      -6.89736691     -21.77596590      -0.00403231      -0.44635519      -0.08480938      -0.65350241      -0.16497428      -0.20651627
H      -53.63306405      -5.44036243     -22.37651918      -0.08373622       0.26187755      -0.16978196      -0.73012136       0.11069767      -0.14836253
H      -60.02949076     -22.14105726     -29.58430076       0.18247766      -0.02818961      -0.07919646       1.33771246      -1.01832963      -0.63908891
H      -59.02664467     -23.59751665     -52.02992919       0.43811980       0.17170095       0.19007832      -0.14946768      -2.53051704       0.77877159
C      -39.49693769     -21.92486623       6.02883519       0.82381980      -0.21052748       1.00498468      -0.16573700      -0.98257823       1.20212700
C      -39.08678726     -23.20979082       5.55049020       0.23659533       0.54295403       0.99759416       2.17117309       1.61390323       0.18982346
C      -38.50558623     -21.10979375       6.70716695       0.76175614      -0.20985617      -0.63542667      -1.17212532       0.45384998      -0.81721480
N      -40.79769430     -21.63222906       5.96634029      -0.04030295      -1.01428453       0.28557069       1.83347802       4.61911345       2.95544495
C      -37.65413804     -23.43615922       5.31909669      -1.41394771      -1.03553005      -0.58997784      -0.82916004       1.23688505       1.19547891
N      -40.05029552     -24.06237576       5.02723743       0.18801941      -0.53923282      -0.41046577      -0.21921770      -2.37236259      -2.82661018
C      -36.72043835     -22.55698834       6.01003741       0.51368608      -0.17445567       0.60256533      -1.10057077      -2.64131411      -1.09411216
N      -37.27781036     -24.33475193       4.41738022      -0.65422484       0.15526566      -1.23160094      -0.52928314      -0.49478314       0.39327903
C      -37.13005226     -21.36298922       6.65009330       0.91868088      -0.10276845       0.37882720       1.68463403      -1.63380037      -0.62521081
N      -35.38742446     -23.06696704       6.13609761       0.42567628       0.89894430      -0.95182492       0.52799268       1.53932172       0.01425689
N      -36.11504541     -20.67750835       7.15882130       0.28142835       0.83380054      -1.27631987      -3.74194838       4.36812847       1.05084400
N      -38.91101522     -19.82418915       7.18950421       1.94162783       1.13285784       0.44017896       0.22088284       0.78771017      -0.65094652
O      -41.11169616     -23.69363393       4.56279670      -0.11451316      -0.76460896      -0.73906929      -0.86849487       1.16332223       0.90437578
O      -39.78013767     -25.26593087       4.85885086       0.06490271       0.50811557       1.11508349       1.29346149      -0.06781259       0.87944269
O      -34.47136104     -22.22404373       6.38328078      -0.82844329       1.52695810      -0.39377251      -0.01232519      -2.31869627      -0.56167634
O      -35.15207217     -24.26062078       6.02331417      -0.33478420      -0.42238154      -1.10531510       0.03931070       0.35999782       0.03184291
O      -38.19500027     -18.84576134       7.06222240      -1.81916863       0.30935575      -1.04976370       2.15222519       0.21091070      -0.22635679
O      -39.99879456     -19.63565125       7.65680627      -1.48186913      -1.92216014      -0.60582879      -2.44948807      -1.20889637       0.67834613
H      -41.08229265     -20.79831968       6.56364227      -0.09101491      -0.32115928       0.28672371       0.26770760      -1.70320126      -1.22468733
H      -41.44245170     -22.28834816       5.69453829      -0.42963114      -0.15027039       0.27441583      -1.52679296      -1.47079319      -0.99312739
H      -36.34618728     -24.69203804       4.41740592       0.23854899       0.36720956      -0.45406233       0.41540613       0.02410626       0.03079918
H      -38.02280498     -24.98871184       4.25090927       0.16196858      -0.14639470      -0.06038961       0.04524849      -0.46032434      -0.52443746
H      -36.40807529     -19.66879833       7.23485840      -0.06397790      -0.28117990      -0.27461536       1.04344596      -1.39866764       0.39395123
H      -35.21614136     -20.94009779       6.85991859      -0.41170112       0.40824443      -0.07213262       1.09780063       0.12479242      -0.17727800
C      -19.74745992      -8.91215593      10.07523200      -0.06565684       0.84029837      -0.09519252      -0.86809533      -1.61145685      -0.42776281
C      -20.23341623      -9.92075415      10.93590053       2.34627903      -0.51618742       0.29052120      -0.39806720      -0.69578704       2.56221293
C      -19.44317376      -7.66707337      10.68075203       0.06841854       0.57711565       1.21142439       1.34786627       1.10967365       1.42969331
N      -19.55365356      -9.25370311       8.76231044       0.58700943       1.35152929       0.68177601       0.11068715       0.80527960       0.95537651
C      -20.43670619       6.66985431      20.39191643       1.18573035      -0.06912378       0.21327599       1.75754673      -0.38665110      -2.61578931
N      -20.37367669     -11.27878819      10.40401297       0.29884441       0.84964756      -0.84250572      -0.45787112       0.68469313      -1.12666737
C      -20.18651287       7.98347628      20.89704146      -1.02948176      -0.36514371       0.50850923       0.34769849       1.05981247       0.25048032
N      -20.62682418       5.64877391      21.21646036      -1.11567469      -0.56087524      -0.08903199       0.74933643      -1.62800188      -5.47183486
C      -19.51913709      -7.38037135      12.13125639       1.61078519       0.37701921      -0.76686938       0.55422081       0.21273453      -0.39449186
N      -20.47134912       8.18984291      22.32502519      -0.88376389      -0.18366536       0.80105466      -1.53021494      -3.43382202      -2.25700330
N      -18.94340104      -6.21917509      12.64731684      -0.36260235       0.68446581      -0.24302295      -2.43675994      -4.28183607       0.05088077
N      -18.72588347      -6.71384578       9.82344682      -1.67554385      -1.19582717       0.80111084      -2.78008956      -1.42374700       0.55264142
O      -20.20402007     -12.26418906      11.10986345      -0.20794399      -2.14799287       0.04319117      -0.03098981       0.21191082       0.34407824
O      -20.67117568     -11.40297987       9.19579460       0.45144475       0.74982238       0.92584638       0.03675774      -0.59285159       1.50440475
O      -21.17828066       7.26316327       0.40139490       0.14165937       0.04630127      -0.49595227       0.47941866       2.29688087       1.03465623
O      -20.11780407       9.12213182      22.94602773       0.86046270       3.00189892       0.38981404       1.01873500       2.29966027       0.98473685
O      -19.04089847      -6.77263464       8.65755437       1.99015930      -0.68833590       0.76857687       0.41856149       0.40282907      -1.74902628
O      -18.01217452      -5.86834838      10.26807230      -0.46148051      -1.03014131       0.79190338       1.54926714       1.31950298       0.73377093
H      -19.51599918      -8.47028392       8.17491224       0.37321997       0.37788924      -0.05504586       0.40591071       0.96820285      -0.90348473
H      -19.93647869     -10.09587575       8.34497769       0.58846899      -0.04315092       0.05432255       0.06526149       0.33618922       0.78833306
H      -20.79095141       5.92314116      22.08522513      -0.06608065      -0.11352846       0.23731705      -0.92871032       0.49683509       4.60752961
H      -20.48134480       4.72238171      20.85461990       0.08752843       0.37861699       0.00061136      -0.20345420      -0.06468427      -0.04103609
H      -18.69972115      -5.61088909      11.94291363      -0.06352392       0.07646547       0.37368719       1.10012555       1.90059344      -1.03146652
H      -19.00105700      -6.00854916      -8.79919458       0.21845990      -0.06938026       0.17249732      -0.22442242       0.04522481       0.17524945
C        5.23473238       9.82427210     -11.92102151       1.12271170       0.91025322      -0.23090713       0.05984453      -1.41284636      -0.06091626
C        4.08450582      10.64446272     -12.24494439      -1.51239418       0.64510315      -0.53879453       1.91328243      -2.92811864      -2.15759105
C        5.50694104       9.70678721     -10.52619159      -0.11091202      -0.69924347      -0.18049375       0.25549399      -0.76122979      -0.83827821
N        5.96624317       9.07769704     -12.79445564       0.43687668      -0.60612812       0.06995601      -3.49440124       2.66797607      -2.80305451
C        3.29819948      11.39427260     -11.34477832       1.05626277       0.50518162       0.94472443       0.87156852      -0.15665371      -1.89431685
N        3.70591795      10.47854014     -13.65159668      -0.08448482      -1.74040171      -1.54336212       2.56685450       1.89454535      -1.81553121
C        3.68077411      11.23920920     -10.00223338       0.23391913       1.38699896      -1.11436723      -2.21753294       1.73756883      -0.00791785
N        2.41991707      12.21640320     -11.91210361       0.67078489      -0.42907890       0.67510949       0.71024918      -2.07613859      -1.33322885
C        4.67900276      10.39062977      -9.59892884      -0.76809460      -0.56274404      -0.96647644       3.39438769      -0.88199855       3.19206063
N        2.97960101      12.14515889      -9.10896397      -0.25270582       0.17360588      -0.57344924       1.78157676      -2.00051144       1.38446887
N        5.05963748      10.33905539      -8.29384976      -0.87616862      -0.64066918       0.48843772      -1.53066047       0.47941354       1.48683102
N        6.57934923       8.80081297     -10.09339504      -0.39639811      -0.51223061       1.35787517       1.05599471      -1.34583335       0.17304273
O        2.59235061      10.79534462     -13.97447533      -0.21779569       0.70146414      -0.19933473      -1.54961209      -0.48907786      -0.38807893
O        4.56933718      10.26381064     -14.57950891      -0.03115310       0.66734599      -1.41532856      -1.54571386      -0.29154654       2.24229723
O        2.99954137      11.95646197      -7.86185901      -1.19177209       0.69515682      -0.31210758      -0.59344000       0.94326382      -2.37526402
O        2.47493511      13.06496518      -9.70883580       0.92262123       2.18184135       0.60788185      -0.99618165       1.35367460       2.15348042
O        7.13984299       9.01551811      -8.99054851       0.55740032       2.05782107       1.40533107      -0.74820811      -0.74611070      -2.07174403
O        6.93280478       7.80434635     -10.82572995      -1.15339640       1.02924310       1.11928708      -0.99084734       2.82035336       2.25390298
H        6.74153107       8.61148955     -12.50916093      -0.23354692      -0.23717550       0.02183554       2.21048201      -1.59393908       1.34402108
H        5.78730750       9.08792012     -13.84139119       0.28464482       0.02905972      -0.25829094       0.07987270       0.56557269       2.30480758
H        2.11794683      12.96490617     -11.39365141       0.09695825      -0.15529074      -0.10943510      -1.16067843       1.78523275       0.82927211
H        2.31509179      12.07231463     -12.91939613       0.17134587      -0.16224173      -0.42132688      -0.45371555       0.57778827       0.80746530
H        5.69474483       9.62927404      -7.93065509      -0.25317016      -0.27371207      -0.08516618      -0.16085164       0.74281354      -0.79118437
H        4.56923110      10.89804329      -7.55234344       0.28166935       0.24028605       0.03613738       0.52840035      -0.92094766      -1.61932147
C      -35.88480980      19.65441772      25.34894952      -1.35583103       0.12853923      -0.62653703      -1.42665954      -0.69164515       1.35163952
C      -36.78963620      20.10254327      26.42512671      -0.31165808       0.31005833      -0.14432764       0.19811991       0.12976561      -1.29389929
C      -35.02715464      18.56494352      25.72020887       0.56659464       0.14951323      -0.13462671       0.82659579      -0.97117197       1.53787257
N      -35.90217960      20.07051867      24.06512420      -1.57136128      -1.67570379       1.50977384       1.15169369       0.61723529       0.89790960
C      -36.83647698      19.55226181      27.72443890       1.01251114       1.08881436      -0.11187895       1.41537563      -0.67699105       1.52198938
N      -37.91046428      20.94453740      26.10459109      -0.43597716      -1.93262185       0.17546449       0.19742874      -1.65197385      -0.66713640
C      -36.07184683      18.42624064      28.01938919      -0.30433219      -0.81372920       0.67767407       1.91875991      -3.04741172      -1.55717732
N      -37.43817573      20.12062078      28.75327087       0.60764230       0.49915054       0.13476996       0.32979881      -0.30477019      -0.30732640
C      -35.12331790      17.85113949      27.02405687       0.34649069      -1.39016833       1.53185159      -0.96824646       3.77475530      -0.23116116
N      -36.26020729      17.71733931      29.24594623      -0.85375709       0.01751349      -0.32711599      -0.68625761       0.42923599       1.23748249
N      -34.25584282      16.93841090      27.34615974      -0.20405340      -0.29798750      -0.79802212       0.01589383       0.10118957      -1.40261369
N      -33.96766088      18.09415112      24.79977611      -0.02761323      -0.23294740      -0.73102771      -2.56830998      -0.21802693      -0.21305877
O      -38.60417851      21.43624172      26.98911141       1.51953836       1.83374733      -0.15855932       0.01261351       0.90949951      -0.56908781
O      -38.21898998      20.94329296      24.92491082      -0.54541689       0.26049669       0.21486026      -0.36800311       1.24271675      -0.42293384
O      -35.44633494      16.86708745       7.21353950      -2.13333075      -0.25680928      -1.72185262      -0.73833444       0.48345679      -0.54332770
O      -37.26529711      18.01056926      29.96220876      -0.43468809       0.33257496       0.56671216       1.56943359      -0.96068510      -0.61796998
O      -33.61711443      18.86638091      23.93901951       0.86052589      -0.95102281      -0.52144933       0.97652100       1.08227804      -0.58092827
O      -33.63002097      16.91483423      24.76309085      -0.59582394      -0.72075626       1.19162803       0.49530437      -0.06755617       0.79217414
H      -34.92421041      19.94657271      23.72208253       0.21991714      -0.19328126      -0.30502405      -1.49673636       0.29382514      -0.62917570
H      -36.56552941      20.77992484      23.70092234       0.32338789       0.47425062      -0.14583804       1.07634197      -0.77785118       1.09618193
H      -37.49543229      19.63273166      29.66049558      -0.17679839       0.05772738      -0.15767312      -0.23709197       0.38547666      -1.05444576
H      -37.97987391      20.81840496      28.34296301      -0.11620855       0.42232296       0.23065950      -1.74361895       1.94896877       0.88264356
H      -33.58046870      16.74823887      26.61211099       0.37283452       0.20276975       0.23549699      -0.21786561      -0.96765484       0.72656906
H      -34.58270403      16.34188699       5.64656675      -0.17659217      -0.33859269       0.40941785       0.79342166      -0.74463447       0.86170813
C      -83.25417215     -21.66907205       8.37731589       1.67336237      -0.23400166      -0.86765074      -0.58137616      -0.28029144       0.27155010
C      -83.97867971     -21.33723081       9.52996278      -1.27215580      -0.66775280      -0.71149004      -2.25750153      -1.86855897       2.93442871
C      -82.19073924     -20.82382835       8.11602431      -1.95298634      -0.25455297       0.35413688      -0.22936433      -1.01736446      -1.12851226
N      -83.56216061     -22.67061852       7.57622613      -1.40015991      -0.44122549       1.55425387      -2.60184941      -0.26384581       1.82420155
C      -83.63187457     -20.35909540      10.53091074       0.11508237       0.99052274      -0.59773566       0.42218848       0.90657569      -1.75382940
N      -85.03621480     -22.35533209       9.96463992      -0.64355375      -0.83802792       0.20796209      -0.81295855       0.33681638      -1.64715620
C      -82.64746816     -19.34304322      10.03075641      -0.55928845       0.60479487       1.35921880      -1.91929537      -0.72219278       0.70843305
N      -84.21116243     -20.26173990      11.70149704      -1.17381953       0.92166998       0.28119244       0.70941689       1.02152386       3.89075437
C      -82.06407246     -19.60684658       8.78665612      -0.12951225      -0.81658557      -0.06736422       4.55325887       2.45694263      -1.89638206
N      -82.51463139     -18.07600305      10.67737758       1.42362039       0.28896741       0.09236612       0.93270342       1.23656405      -0.41020215
N      -81.15111064     -18.66187987       8.29246047       0.19293109      -0.42694453      -2.24988086      -3.48321520      -2.77883612       0.85105996
N      -81.33179044     -21.26450539       7.03299442      -0.19714123      -0.05994514       0.55583302       1.47934496       3.96448663       1.82096042
O      -85.46453487     -23.13831709       9.05516171       0.68884951       1.32599467       1.06365385       0.26987155       1.57714373       3.32250738
O      -85.54384303     -22.30860449      11.10392353       0.11865829       0.20021308      -0.05065095       0.96267261      -0.80808326      -2.06990065
O      -81.75705149     -17.12664706      10.23145089       0.54167335      -0.61969844       0.31215331      -1.87921655      -2.36208096       1.17417090
O      -83.17486217     -17.90789537      11.70076812       1.23123329       0.48247452       1.42334315       0.45233394       0.66622338      -0.08272320
O      -81.19805139     -22.40447503       6.73875613      -0.83483698       0.33802370       0.98285568      -0.10321394      -2.54768350      -0.93860873
O      -80.58352363     -20.38756066       6.59736157      -0.71914801       0.29059584      -0.24929251       0.12180853      -0.19354700      -1.08440179
H      -82.87824303     -23.03610885       7.03322753       0.07267228       0.18092099       0.04437016       2.47705363      -0.78939474      -2.09759922
H      -84.27694598     -23.37928627       7.81094374       0.63798937      -0.12926702      -0.50593466       0.20279449       1.30431254       0.11181033
H      -83.76816407     -19.49033292      12.37511552       0.19360780       0.58966923       0.19565764      -1.69568429      -2.46566378      -2.19003462