1296
Lattice="-42.1332324998737 -3.5384272602974605 21.788228425148905 0.0 15.601821790121283 2.4609414302291226 0.0 0.0 -31.058149604428355" Properties=species:S:1:pos:R:3:momenta:R:3:forces:R:3 energy=-1487789.2834845625 free_energy=-1487789.2834845625 stress="0.005779543387615229 -0.0001866695943769096 -0.0013827859605171704 -0.0001866695943769096 0.0023990357425135995 -0.002286081572765485 -0.0013827859605171704 -0.002286081572765485 0.005838712177672908" pbc="T T T"
C      -29.32289814       5.05025349      12.37113892      -0.21624978       0.31358648      -0.22292110      -0.64838947      -0.50450665      -1.71275468
C      -30.40172954       5.55826615      13.18690989       0.31380060       0.84740921      -0.27325314       1.38359215       0.78447908       1.19613231
C      -28.02989455       4.80210175      12.92987578       0.29278069       0.06061909      -0.21286486       0.91779107       0.28548175       0.44807487
N      -29.54035908       4.79665928      11.05883291      -0.47945016       0.53710834      -1.96310398      -0.32157326       0.46729618      -0.68169794
C      -30.12735964      21.26392875      17.06976015       0.92977748       0.17289623       1.18594498       0.08308523       0.18072658       0.34180362
N      -31.52024287       6.28873905      12.64665419       1.03865246       0.65771473      -0.60701247      -0.98705351      -0.21480646       1.27756583
C      -28.85755911      20.89432894      17.56781165       0.06104339       0.25008709       1.21978880       1.73742580      -0.44220508       1.21310634
N      -31.04890374      21.60600466      17.98088296       0.17831744      -0.16514628       1.00490867       0.75670045       0.51498570       1.27213216
C      -27.69612201       4.98725528      14.33128305      -0.27664502      -0.78355046       0.57200327      -1.46105324      -0.26271692      -1.61862894
N      -28.70392878      20.70500364      19.07514606       1.25040323       0.21038667       0.65527460      -1.63876516       1.05174461      -1.71742415
N      -26.43769690       4.85056389      14.80020020      -0.16477562      -0.53032602       0.35867127      -0.29222913      -1.88978218       2.47343276
N      -26.96365311       4.30182067      12.04544062       0.18519045       1.08688020      -0.55184509      -0.75391385      -1.61718447      -1.65937290
O      -32.17894264       7.02608015      13.43023996       1.07011769      -0.58906510       0.09683241       1.02223941      -1.03798102      -1.63917544
O      -31.86962216       6.11790625      11.48226272       0.18348840      -0.29237524      -0.42506837       0.45107564       0.20779959       0.16788677
O      -28.07737348      19.74036105     -11.61302579       0.63403160      -0.36258542      -0.07256886       0.79956252      -0.15270038       0.30644263
O      -29.31734255      21.46069378      19.81979851       0.74736261       0.77434851      -0.89728298       1.02595972      -0.46600934       0.17814234
O      -25.79561972       4.58007808      12.16957036       1.32266316       0.54739551       0.00845852       0.71404320       1.22841217       1.58854689
O      -27.25440692       3.50718814      11.13069019      -0.81972207       0.95045514       0.32245413      -1.03724267       0.61791016       0.62541840
H      -28.83598283       4.29445948      10.50178948      -0.16527192       0.42345582       0.05224411      -0.57176203       0.50965451       0.88905385
H      -30.38447729       5.14462075      10.55378037       0.24918286       0.32960225      -0.14126251       1.07325933      -0.50414589       1.41125159
H      -30.83236931      22.10475365      18.85965650      -0.02280918       0.00821725      -0.06364295       0.71826002      -1.21095847      -0.78104093
H      -31.84638502      22.02247626      17.65388822      -0.14690727       0.36913939      -0.21856845      -2.28790305       0.67284662      -1.50767846
H      -25.73687561       4.46043107      14.15142958       0.01776442       0.02028543       0.59151510      -0.76353618       0.54501504       0.55343587
H      -26.43852850       4.40858162     -15.25104623       0.11813592      -0.07745437      -0.25080916       0.23898986       1.50372552      -2.60061728
C      -48.97661407      -0.25415445     -11.52516947       0.52279637       1.67852118      -1.71217832      -1.08052903       0.39489694      -2.44092692
C      -49.41263468      -1.53283830     -11.99800318       0.54494338       0.52917211      -0.03058397      -0.56898036      -0.20405947      -1.21921504
C      -47.93621739      -0.16216161     -10.61317871       0.48728187       0.38271761      -0.26019542       2.86724134      -0.31382768       1.57123625
N      -49.47755839       0.79739657     -12.14380615      -0.43842463       0.18125099      -0.10453941      -0.28660889      -0.95779083      -1.00935132
C      -48.98634182      -2.72552543     -11.41684108      -1.18403197      -0.99080985       0.95807863       2.18420376      -1.16261480       0.40362445
N      -50.09021777      -1.72166555     -13.34421890       0.41826367      -1.60693262      -1.61302454      -1.14400536       0.69865918       0.85347035
C      -48.00867823      -2.64125407     -10.39477854       1.84397875       0.31746580      -0.89648317       0.61113415       0.33788415       2.81503636
N      -49.26136076      -3.91777204     -11.89834114      -0.94635572       0.46359471       1.16550894      -1.40089864       0.10773142      -1.63787402
C      -47.40185684      -1.34623858     -10.01633729      -1.86370916       0.89798278      -0.10724793      -0.85243425      -2.58243286       0.47694606
N      -47.68954339      -3.92724614      -9.61823796      -0.63055769      -1.00397757       1.25881574       1.78453946       0.04366248      -1.96131850
N      -46.46834577      -1.38131181      -9.07006489       1.06131639      -0.76995950       0.98748683      -0.54708932      -0.39886812      -0.52768049
N      -47.31399186       1.11991233     -10.29776486       0.80670597       0.26931482       0.60166482      -1.42018094       0.00549660       1.45232681
O      -51.12251852      -1.10387527     -13.63836771       0.10397792      -0.25188370      -2.19518452       1.68434778      -0.37999391       0.53427434
O      -49.63016695      -2.58663417     -14.09942881      -0.50747614       0.10225012      -1.59615184      -0.10673305       0.52533298       0.15256289
O      -46.77080960      -3.96571850      -8.76532400      -0.28412611       1.81440357       0.24970744      -1.50241292       0.87524984      -0.48661721
O      -48.15643155      -4.99732503     -10.04081110       0.11861711       0.96804115      -0.48344457       0.06418208       1.11336391       1.41301278
O      -46.29663557       1.27897878      -9.56757966      -1.43878128      -2.71714084       0.79255899      -1.59698764      -0.72825640      -1.79829594
O      -48.03186234       2.07261225     -10.63527312      -0.56544468      -0.73856416      -0.73482073       1.61499161       0.47932712       0.43429421
H      -49.31290377       1.71013308     -11.84430386      -0.05797442      -0.16944643      -0.60874831       0.66213576       1.08935335       0.77347404
H      -50.31172538       0.71399494     -12.68758392      -0.27328422       0.09302329      -0.29788264       0.02843714      -0.65533493      -0.22480762
H      -48.87732528      -4.80592105     -11.57817882       0.02948021       0.02122666       0.42097407      -0.18962199       0.87663433       0.27096937
H      -49.62539527      -3.86336617     -12.83250141      -0.28743015      -0.21623907       0.19540647      -0.14157759      -0.64487959       0.17386871
H      -45.94863330      -0.56829000      -8.87615974       0.28138427      -0.08862438      -0.04830171       0.38674702       0.98052810       0.42282143
H      -46.35672050      -2.27342858      -8.58827857      -0.21547836      -0.01940957      -0.29091170       0.20193651       0.25572932      -0.29059975
C      -43.33408796      -1.99217659     -36.52729870      -0.18142686       1.62582324       1.10322390      -0.71275703      -3.07124504       1.52887100
C      -42.10082559      -1.25150836     -36.40899597      -0.20572142       0.67099150      -0.12751344      -0.46842715       0.34851088       0.41031285
C      -43.71233298      -2.94781734     -35.41221356      -1.62062766      -0.37661459       0.60340581      -0.66372228       1.83295576      -2.01233455
N      -44.09084774      -2.03737211     -37.59765637       1.04383089      -2.39377060      -1.04971468      -0.66481199       0.06432864      -2.19295083
C      -41.10975293      14.03900094     -32.95810253       0.70413631       0.27675343      -1.10584381      -0.08920726      -1.97614086       0.07623521
N      -41.89697117      -0.18920654     -37.31189927      -0.22559040      -0.38655988      -0.08419718      -2.32206557      -0.21348678      -1.90254658
C      -41.41705084      12.83020523     -32.18507883      -0.43360759       0.18808685       0.37518567       0.65005091       1.41305109      -0.11328329
N      -39.97391076      14.75491749     -32.91656634       1.30913926       0.46428043      -0.06446393      -0.60932172      -1.50414944       1.91438612
C      -42.77116191      -3.24134468     -34.42881171      -0.99462990      -1.03966092       0.33914720      -0.80078263       0.03429318       0.59350237
N      -40.37383824      12.30599469     -31.40265429      -0.61729546       0.44258604       1.17357126       1.94085566       0.72543483       1.40599420
N      -43.15684798      -3.89393662     -33.31600005       0.44495525      -0.37818536       0.89424124       1.48041130       0.26817610      -1.21073411
N      -45.11102824      -3.47761278     -35.32904246       1.30573807      -0.19532378       0.66130114       0.91168727       0.52432022      -0.18964701
O      -42.88267835       0.11353095     -38.02379740      -0.69931963       1.43358299       0.47369603       0.91772798       0.17497035       0.46103687
O      -40.83374691       0.37407211     -37.49550619      -0.21811152       1.07528441       3.37187219       0.99261779       0.35682909       0.66458125
O      -40.50121193      11.30111613     -61.78776042      -0.39718945       0.55706790       0.38165618      -1.51996852      -0.62142118       0.33685544
O      -39.26075442      12.87614352     -31.36774721       0.21590789       0.94379532      -0.11733792      -0.56525620       0.22578836      -0.71921991
O      -45.82598589      -3.62744190     -36.35995108       0.50805688      -0.45622436       1.25084795       1.42019912       0.24593665       2.25882996
O      -45.48687327      -3.74128588     -34.17899986      -1.00409754      -0.53420859       0.83988668      -0.88592798       0.19077825      -1.83483907
H      -44.91092452      -2.71823433     -37.74998976       0.22508965      -0.16234958       0.14040349       1.94113754       1.43737213       1.02835291
H      -43.71495989      -1.45600370     -38.37207661       0.25827488       0.11071116      -0.12818628      -1.04022034      -0.54614070       0.84886401
H      -39.23764498      14.59822407     -32.18703749      -0.06774401      -0.13028029       0.28698542      -1.44752063      -0.06585989      -1.28545038
H      -40.09535471      15.56292600     -33.46307979      -0.30509194      -0.05904558      -0.07236134       0.99914511       1.24107401      -0.61019660
H      -44.07859455      -3.84032753     -32.94409035      -0.45741324       0.52520983       0.24480891      -0.14255550      -0.33534399      -0.34705109
H      -42.45412085      -4.44322832     -63.96254141       0.05906482       0.09243861       0.25436486       0.82368349      -0.31127935       1.05812392
C      -32.86300246     -12.48684959       4.97095723      -0.31444978      -0.13408179       0.93717401      -1.55895606       0.08264724      -0.88064848
C      -31.44956281     -12.69545764       4.95127909      -0.48573965       0.59228363       0.94752060      -2.42416002      -3.15648320       0.36140352
C      -33.36012010     -11.13815514       5.04653040       0.73375082      -0.03154142       0.35739376       1.65439707       0.21099474       0.27819297
N      -33.80161277     -13.48274314       4.82707210      -0.37648795       0.63498417       0.61535176       2.31015429      -0.57503368       0.02112138
C      -30.52631768     -11.74185422       5.22263517      -1.63521748       1.98963301      -0.71467734       0.79337823       1.25589675       0.15292698
N      -31.00999647     -14.13025661       5.02894745       0.88307751      -1.54746947       1.37416506       1.25047362       1.39360338      -1.72583159
C      -31.01954091     -10.36976364       5.14215471       0.14522294       0.35744794      -0.36133107       0.95852032      -0.24426531       0.00979939
N      -29.27225813     -12.05088221       5.55431761       0.25370341      -0.27178887      -0.06157162       0.14376681       3.34259088       0.14774970
C      -32.38772407     -10.05577528       5.01169388       0.68739396      -0.51500008      -0.34475551      -0.77652642      -0.40579071      -0.41520341
N      -30.05527479      -9.32077286       5.20975255       0.42919927      -0.52530850       0.23057279       1.65772202       2.55016303      -0.37456219
N      -32.77139508      -8.80223303       4.77938390       0.39387751       0.16543407      -1.39097749      -0.53670604       2.59990783       1.16921933
N      -34.73973677     -10.78107112       4.84681862       0.28125802       0.36676701      -0.75254498       1.09178647      -1.95478857      -1.36532630
O      -29.92692472     -14.41981105       4.46216202       1.39392983      -1.41809145       0.27693256      -1.76104514       0.19707413       1.28868241
O      -31.74404766     -14.91726585       5.57067799      -1.59690443      -0.43762625      -0.94488742       0.18324450      -0.60039964       0.16088881
O      -29.01704578      -9.51395269       5.87879119      -0.63653912       0.22488103      -0.04400078      -0.52421184      -0.51186394      -0.08842418
O      -30.12386444      -8.19874159       4.63203258       0.33595529       1.52379996      -0.38999387      -1.22761825      -2.23535735       0.78351542
O      -35.04614062      -9.64992512       4.76611365       0.89577703       0.65271984      -0.93115891      -0.91853055       3.53538586       0.77099540
O      -35.57355819     -11.62910667       4.56160361      -1.20362805       0.38500357       0.23349274      -0.55388371      -1.81672095       0.44173219
H      -34.70941892     -13.21439688       4.58488030       0.29771322       0.37746025      -0.08317299      -1.33938690       0.94827016      -0.13172193
H      -33.56697816     -14.38443377       4.43003705      -0.47275209      -0.19795054      -0.22176918       0.54295572       0.38290280       0.52735450
H      -28.75322793     -11.14774044       5.72803870      -0.06660213      -0.09051410      -0.00963212       0.14656566      -1.70135785      -0.01736708
H      -28.87006733     -12.95057823       5.48004692       0.36173341      -0.06457188       0.22085421       0.03019426      -0.66065656      -0.23799279
H      -33.63734651      -8.42587297       5.22219270      -0.06855313      -0.10717173      -0.17984722       0.86507255      -1.00929539      -1.07396512
H      -32.10444547      -8.03114227       4.65830611       0.06894912      -0.11709111       0.35696369       0.10992842      -1.17350830       0.15527483
C      -18.29048734      -1.46730117      -0.72696260      -0.58202423       0.47343391       0.25420402      -1.06698756      -0.44557100       1.16022125
C      -16.93892452      -1.87607973      -0.96327399       0.77846446       1.05145745      -0.09176416      -2.53032297       0.51705475      -0.36886621
C      -19.26082815      -1.68457532      -1.81820114       0.35703835       3.13126674       0.54565968      -0.14960580       0.52563031       2.37775229
N      -18.70177435      -0.99885968       0.49753334      -0.99821267      -0.73448825       0.68178959       1.51970694      -0.78138715      -2.06549759
C      -16.60222095      13.06716279       0.32641744      -1.55864379      -0.53976991      -0.34613040       0.72307661      -0.32129286      -1.69583112
N      -15.96110904      -1.65609095       0.00371773      -0.28331822       0.30587517       1.60223909       3.28808052       0.29953353       1.66241610
C      -17.54810904      13.03108487      -0.78576164      -0.96603717       0.37650389      -0.59557957      -0.81040843      -0.19699708       1.71970738
N      -15.37518027      12.48932953       0.26009641       1.66762975       0.41376886      -0.04217065      -2.67608734      -1.01896754      -2.91937107
C      -18.94749862      -2.25481541      -3.03586890       0.24122976       0.17462782       0.94960420      -0.13518983      -0.61533798      -2.55608971
N      -17.17798997      12.76378120      -2.09315341      -0.84310958      -0.06152788       0.99752533       1.35202506      -0.31063348      -2.83717730
N      -19.92220862      -2.54214368      -4.03405981      -0.24665790       0.36381191       1.40987712       3.40126540      -0.83469728       0.15048563
N      -20.59208668      -1.15083531      -1.63884570      -0.79675078      -0.69649588      -1.47743120       0.49372992       2.05683392      -1.08865091
O      -16.25057121      -1.82306191       1.20419691       0.37974053       0.78751603       1.85422752       0.29406850       0.75947545      -1.71944037
O      -14.78115916      -1.34794248      -0.38033788       0.04351406       0.42056654       0.24867179      -2.89673542      -0.60350539       1.26291397
O      -17.92856216      13.28697131     -34.04796614      -1.36319023      -0.40875443       0.50813069       3.09816640      -1.72547356       0.89233912
O      -16.11920591      12.08952156      -2.37522848       0.97662317      -0.37209257       0.17425972      -2.77667628       1.81782940       0.82146009
O      -20.93265371      -0.62574015      -0.58913130      -0.91367999      -0.87633221      -0.22975476      -0.17616713      -0.67226225       0.89680576
O      -21.27852174      -0.95494111      -2.63925905      -1.53530662      -0.05914096       1.49703266      -0.54428079      -0.58583694       0.03528273
H      -19.68279649      -0.82993600       0.56915157      -0.02877470      -0.05365959      -0.07327207      -0.39108538       0.35969254       0.26867430
H      -18.03871534      -0.93311445       1.25464307       0.07732236       0.06885001       0.15980155      -0.11029962      -0.15063963      -0.24628069
H      -15.10680543      12.20893474      -0.67544936       0.11077750      -0.09683911      -0.13055391       0.08527439      -0.06152256       0.11116441
H      -14.71067753      12.81864412       0.85824924       0.04772524       0.17725865       0.14664738       2.10666120       1.03371205       1.61182659
H      -20.63735123      -1.85378891      -4.07081476      -0.23195753       0.22898284       0.37882912      -0.76235115       0.02706966      -0.12837280
H      -19.49519893      -2.87822403     -36.02490935      -0.12077813      -0.13968501       0.10696990      -1.12379323       1.29651714       2.33720384
C       -6.07461661      10.86627855      -6.07131699      -0.64809524      -0.77598156       0.21219834      -0.88340392      -1.51825709       1.39851191
C       -6.06456726      12.20910792      -5.71434553       0.57753883       2.29527665      -1.07831237      -2.31072216      -0.66979505       3.21793724
C       -6.70804210       9.86632857      -5.15407749      -0.16065277      -0.33696497      -1.76541428       0.66084948       4.44217421       0.50322769
N       -5.67081134      10.47729459      -7.25750171      -0.18721528       0.60455634       0.11352700      -0.06388013      -3.33287541       1.16498549
C       -6.72060374      12.73408271      -4.49068893      -0.49600290       0.14073505       0.43676342       0.89697631      -2.40438667      -1.32880312
N       -5.77156487      13.08801255      -6.72480002       0.33610794      -1.17978251      -1.50780223      -1.47934518       2.06313511      -0.79382834
C       -7.25991083      11.77078080      -3.60067289       0.19771066       0.16751815      -0.46810570       1.77290560       0.07879117      -1.04158833
N       -6.75735097      14.02008702      -4.31842359       0.32744899      -1.18203505       1.37485990       0.23722041       2.29227065      -0.88097399
C       -7.40089363      10.35224367      -4.00790098       0.23258049      -0.39322736      -0.65436195      -1.90478676       1.72164384       0.63236802
N       -7.81308004      12.28442434      -2.37885757       0.05173416      -1.00845390       1.42419333      -0.61401079      -1.25373547      -0.36481844
N       -8.31974617       9.61741681      -3.39017000       0.24170167      -0.16810445      -1.39836223       2.94532432       0.11591555      -2.07227664
N       -6.91635335       8.60668934      -5.57440285       0.19141676       0.38604969      -0.26597903       2.22993537      -2.38011299      -1.24037765
O       -4.73470198      12.91920853      -7.30019563      -1.55885745       0.66734890       0.27299894       1.44111408       0.68159756      -1.50428780
O       -6.63135629      13.95344639      -7.02585880       0.75358758      -0.37777689       0.69716678       1.21008811      -0.47625420       0.23308043
O       -8.84098419      11.71469131      -2.08143692      -1.17254470      -0.28960617      -0.07524196      -0.93459664       0.48888461       1.22801516
O       -7.31176767      13.17743195      -1.69011021      -0.41835710       0.54176885      -0.68145267       0.25136324      -0.37118342      -1.18247682
O       -7.73988063       7.86346040      -5.16744390      -0.80611687      -1.03840095       0.85727151      -4.52708560      -1.22777786       2.92815464
O       -6.12295868       8.07517294      -6.32662981       0.82466683      -0.28266980      -0.98300400       2.92170914       0.50054380      -2.61940726
H       -5.43516018       9.48858165      -7.40898654      -0.24216104      -0.03963845       0.15186392      -0.58052027       0.75300761       0.19937873
H       -5.47730018      11.08817710      -7.95760224       0.04607253      -0.05303869       0.18020598       0.89465431       1.99149695      -2.05403816
H       -6.91183220      14.45274153      -3.42943704      -0.17310389      -0.19690391       0.22427075      -0.23493605      -0.07374645       0.23235216
H       -6.60421961      14.65573055      -5.13137640       0.16330659      -0.19241715       0.11277709      -0.09932661      -0.94110281       1.16966276
H       -8.33394372       8.68536298      -3.67795325       0.23659970      -0.00549113      -0.23191139      -0.47853662      -1.47598259      -0.15599139
H       -8.87410840       9.97794109      -2.70512535       0.37930565       0.43468789      -0.08529859      -1.35526388       1.05031628       2.07043209
C      -27.36909242      27.23265409      31.71567215      -0.24217893       0.24107271      -0.33824277       0.66719124      -2.29486020       0.76200702
C      -26.39710835      27.67321742      32.65462671       0.05158676       0.29801415      -0.12658922      -0.09409568       0.89909652       1.00235569
C      -26.96381658      27.31328952      30.37596354       1.64243399       0.65431028       0.49760594       0.85832582       1.70537977      -0.32486951
N      -28.40658723      26.41184582      32.06756142      -0.93876615       0.02505047      -0.87716861       2.34981176       1.62033314       2.54764081
C      -25.17346717      28.34683237      32.34814463      -1.08665689      -0.59337073       0.47049621      -1.84079265      -0.88221321      -1.22320359
N      -26.73569301      27.54490470      34.07612755       0.97300765       0.39605241      -0.41298600      -0.74440380      -0.43468711       0.33767821
C      -24.81461771      28.33712002      30.93612949      -0.75848812       0.88012362      -0.55195363       1.04450172       2.26262316       4.65616388
N      -24.47233261      28.82530571      33.33993585       1.36674047      -1.11546677       0.81147265       3.61684148       1.06974474       0.12382489
C      -25.69212751      27.94105590      30.00707300      -0.18898014      -0.46199991      -0.01007626      -2.27522548      -3.23180919      -0.56443764
N      -23.53273739      28.87805344      30.59935875       0.44458067       0.61581748       0.55921421       0.64498595      -0.04926965      -0.52009053
N      -25.33974007      27.83178821      28.74433097      -1.53957702       0.50500716       0.46595514      -0.72559317      -2.76727612      -3.68413174
N      -27.87317921      26.76252765      29.40893441      -0.36988740      -0.40779300       1.31033277      -2.16601718       2.34691020       4.79168056
O      -27.26839423      26.48283430      34.41983007       0.02203552       0.97985623      -0.28160305       0.36027848       0.66393770       0.11567702
O      -26.53135091      28.45763133      34.87890752      -1.22242257      -0.15669823       1.44388832      -0.02371583      -0.69232754      -0.78650678
O      -22.97290297      28.29369084      -1.39316102       1.06943407      -1.41124187       0.52734605       0.69103768       0.91656075       0.46579017
O      -23.02704864      29.82829860      31.22324378      -0.98890931       0.24519354      -0.38843288      -0.72253209      -1.27529905      -0.78848309
O      -27.52551664      26.19428556      28.45617979      -1.34633862       0.13429438      -0.13279019       1.16872822      -1.96169476      -3.76924714
O      -29.08025111      26.86108069      29.76415646      -0.95896887      -0.20016984      -0.45120686       0.67856077      -0.18329231      -1.84908057
H      -29.11843521      26.37566204      31.43420168      -0.02063071      -0.13644501      -0.10836085      -2.10013016      -0.53337442      -1.44016765
H      -28.55836081      26.18173112      33.04765559      -0.22065537      -0.13882131      -0.16353183       0.23210986       0.14985347      -0.67102657
H      -23.46398175      29.10830902      33.25774466      -0.04132223      -0.14632105       0.03512537      -1.68968095      -0.15636151      -0.45883348
H      -24.79756291      28.76147800      34.27773840       0.07798514       0.51642134       0.38294768      -0.40429826       0.05466513       0.43813420
H      -25.82168174      26.99133516      28.30353063       0.04078172       0.12593891      -0.02082653       0.39634681       2.12428782       0.24946326
H      -24.37119035      27.71610821      -2.55250165      -0.01094796      -0.28542443       0.01448886       0.22250984       0.81934885       0.47279907
C      -56.75756410      12.97599492       1.91445984      -0.68728420      -0.73077620       0.31915835       1.96742078      -1.25436093      -0.98118729
C      -55.62917196      12.60297359       2.69807915       1.50759523      -1.17496332       1.00657113      -0.07266586      -0.07134048       0.46450751
C      -57.04642524      14.28334856       1.83785755       0.45228766       1.09020896      -0.10506842      -0.89965892       6.03557123      -0.55558402
N      -57.39287673      12.23453359       0.92295209       1.78948719       0.19118384      -0.94199428      -0.76644598      -1.45713885       1.65246384
C      -54.77954048      13.56569769       3.46896957       0.70992845      -0.26170986       0.73326234      -1.50159239      -1.81985191       0.89636126
N      -55.41764957      11.18260808       2.86060386      -1.90165370      -0.58984215       0.28007787       2.69900090       2.17816804       2.40151405
C      -55.06661346      14.92594794       3.18875446       0.89863920       0.44723436      -0.14999194      -0.10920035       0.12725449      -0.55762174
N      -53.94654066      13.08103277       4.45834633      -0.17495793      -1.08038059      -0.04690896      -0.57185328       2.98303506      -0.72589383
C      -56.15501019      15.39027498       2.19334507      -0.08058370      -1.20561073      -0.28905841       2.63977908      -2.12531652       3.62251602
N      -54.29103342      15.82442266       4.06398873      -0.04383300      -0.04634372       0.15168850      -1.80396861       0.26317605      -1.74909207
N      -56.26935214      16.67174749       1.87790121      -0.28985979       0.55597991       0.71359358       0.21486807      -2.72573225       0.88717067
N      -58.32295235      14.67526005       1.13260207      -1.22580125       0.56573068       0.04876737       0.90762639       0.74505990       0.19326359
O      -54.82418537      10.81190438       3.88751892       1.17030879      -0.31224957       1.14034261      -0.79034431      -0.43153554      -0.61578787
O      -55.63924589      10.42667943       1.98314195       0.63757442       0.09426625      -1.04792790      -1.58490968      -2.14682493      -2.68227141
O      -53.69915324      15.37136222       5.02735624      -1.03763951      -0.68732309      -0.60808165       0.25465331       1.16908562       0.43378617
O      -54.33803864      17.01165025       3.80244295      -0.28427938       0.90480013       0.13317811       0.14560923       0.48672635      -0.06147525
O      -59.33923815      14.05094669       1.36491165      -0.19443169      -0.62281405       0.10876243       0.22482564      -0.03272582      -0.11960016
O      -58.29395533      15.66509038       0.39195337      -0.53060920      -0.59223989       0.68012849      -0.00448931      -0.70694654       0.54770690
H      -58.41899370      12.43600453       0.89437144       0.12357568      -0.22850216       0.16587012       1.36681079      -0.38023662      -0.10097551
H      -57.22605068      11.25832798       1.14240363      -0.06862940      -0.23263514      -0.13929272      -0.37119496      -0.13234536      -0.48768496
H      -53.59452770      13.71572861       5.25460941      -0.18325036       0.13679413      -0.29049913      -0.76361513      -1.54447038      -2.27967863