1296
Lattice="-48.05354341154337 -10.900420297164134 22.995268079816764 0.0 14.143473898594443 13.872898421246731 0.0 0.0 -29.837273685998273" Properties=species:S:1:pos:R:3:momenta:R:3:forces:R:3 energy=-1487785.1843436272 free_energy=-1487785.1843436272 stress="0.0011505881433989138 0.00034193616794831323 0.00044730537247051103 0.00034193616794831323 0.001440769518636362 -0.0022866876029644617 0.00044730537247051103 -0.0022866876029644617 0.00136840114560626" pbc="T T T"
C      -29.69150191      -3.33464430       4.72670116      -0.04456696      -1.10248141       0.72451788       0.74172833       0.39728604       0.55803941
C      -29.17874020      -3.74069140       3.47754638      -0.64739028      -0.38402777       0.33444817      -0.85549118      -2.06261995      -2.89064427
C      -30.51564999      -4.28082368       5.49726242       0.97015210       0.96553465       0.00451198       0.55756966       0.64496050      -2.39341668
N      -29.24746820      -2.13082098       5.15955971       0.51219864       0.66781762       0.58673237      -0.94772523      -0.89049305       1.24619343
C      -29.70779956       9.17094432      16.57815552       0.31315036       0.41835475      -1.00183472      -2.45316139       1.81065571       5.14612460
N      -28.32192223      -2.91140694       2.68875238       0.41529132       0.24020485       0.23539975      -0.45664174       1.54308502       3.28824347
C      -30.79809816       8.47808059      17.31410876      -0.19312264      -0.90906202       1.02585735      -0.38621339       0.26008432       0.64099053
N      -29.45856309       8.86003671      15.36455184       0.84578965      -0.29529815      -0.73629623       0.75565148       0.38779881      -1.62799351
C      -31.25166399      -5.33541343       4.79817774       0.49389501      -0.20704445       0.46002484       3.77215170       1.83971529      -2.41601910
N      -31.50488585       7.37042991      16.66522306      -0.43490593      -0.49916726      -2.19159310       0.49843328       0.23504740      -0.38638770
N      -32.25553063      -5.93766624       5.29541599      -1.79855629      -0.66731465      -0.66579042      -1.63949850      -0.50966956       2.99347961
N      -30.89489274      -3.87567338       6.77987260       0.18112744      -2.15164961      -0.12158302      -0.80608514      -1.14340165      -1.23664196
O      -28.00625900      -1.72991700       3.08360093       0.22035169       0.04587666      -1.29930658      -0.17141003      -2.47599360      -2.11647584
O      -27.87558288      -3.44303830       1.70632726      -0.61611318      -0.48551209      -1.77400004       1.57983842       0.89569964      -1.67644927
O      -30.81968178       6.88935169     -14.07525013       0.52076623       0.65199235       2.14001266      -1.54092692      -1.25342594      -0.00115192
O      -32.66348176       6.95095214      16.94110473       0.60423560      -0.33559894      -0.46976572       2.22106043       0.89780861      -0.12048615
O      -30.90989350      -2.67353507       6.98719019      -1.89635011      -1.65886074      -0.81551782      -0.01733753      -0.35997990       1.86509208
O      -31.27793203      -4.77996559       7.53971875      -0.26656913      -0.30836509      -0.78229894      -0.01326143       1.15197646       0.58514881
H      -29.36354730      -1.92868272       6.14043486      -0.28126914       0.20523867      -0.00061939      -0.06898399       0.04350477      -0.39905396
H      -28.68681214      -1.51085917       4.56191905      -0.57246831       0.23055052       0.02710458      -0.16008339      -0.89355203       0.18867197
H      -30.07727354       8.17223717      14.96415683      -0.19261377       0.08652873       0.38323488       0.33645722      -0.35420077      -0.27474442
H      -28.78077258       9.43644145      14.88928667       0.49094484       0.16553493      -0.17823137      -0.08506758      -0.19838392      -0.19189075
H      -32.43543003      -5.65182861       6.27050357       0.13566504      -0.10211956       0.07530649      -0.39724397      -0.79204605      -0.73096560
H      -32.68990288      -6.71504749     -25.01944839       0.13287167       0.18715145       0.09571173      -0.23883197       0.20952791      -0.10327968
C      -51.27757238      -3.94846134      -1.22523022      -0.27931416       0.63612681       0.20945067      -0.63853808       0.15812009       3.66105252
C      -50.18586198      -3.25137329      -0.65748164       1.09804496      -0.15340648       0.01565198       0.86117496      -0.36860367       0.19619859
C      -52.26542538      -4.44611282      -0.23380444       0.37176355       0.11383485       0.55373168      -0.93836256      -1.46931602      -1.87415226
N      -51.33911046      -4.08882649      -2.51557047      -1.28967481      -0.18437604      -0.29187656      -0.03440408      -0.28265653      -1.58654402
C      -49.87837467      -3.26435999       0.72565367       0.86056082       0.27131127       0.51695903      -2.42912911      -0.36982868       0.02256258
N      -49.11651136      -2.86817850      -1.54307787       0.13748399       0.46300767      -0.20955897      -2.25413331      -0.37805489       0.60234150
C      -50.94685647      -3.73642870       1.59291081      -0.94277124      -0.44809878      -0.23950011       1.27234907       1.27058263      -0.63462133
N      -48.74410818      -2.78554943       1.22820268      -0.41887215       0.97937196      -0.41415803      -0.12826651       0.61315497      -1.92041513
C      -52.18061486      -4.33369902       1.18156467       0.47470259       0.14486311       1.80954681       1.61820164       1.94527223      -0.25857320
N      -50.82031481      -3.34486752       2.98841365      -0.36685493       0.73971976      -1.31606007      -0.70542996      -1.60012112       0.38171026
N      -53.17196147      -4.55640189       2.03530640       0.80013042      -1.17994630      -0.35883710       1.11854432      -0.28739403       0.03955557
N      -53.34855124      -5.31186997      -0.70052930       1.08615358       0.44678645      -0.01347344       1.72638382       0.74819833      -1.26625772
O      -49.42588831      -2.44144345      -2.63673252       0.27209349       0.64928931      -0.31824777       0.31548993       0.57453357      -1.45430562
O      -47.99635121      -2.99263518      -1.17247062      -0.75182859       1.33172928       0.62860456       2.80245075      -0.02024176       0.21487267
O      -50.90753433      -4.30616286       3.75187468      -1.01483423      -1.20535804      -0.72568713      -0.08890263       0.30085863       0.64831957
O      -50.72113510      -2.19860029       3.36769191      -0.35154692       0.83982101      -1.46437773       0.27107001       0.30692219      -0.47391361
O      -53.24509207      -5.78123279      -1.86265681      -0.46073469      -0.30907070       0.35407109      -0.35216526       0.24173628       0.41581079
O      -54.27912150      -5.60363559       0.01231040      -0.03328756       0.53768228      -0.45638211      -0.58704667      -0.17579578       0.00622701
H      -50.62035066      -3.67050712      -3.10001416       0.14517759      -0.24213922      -0.35744647      -0.60991132      -0.14638167       0.26128793
H      -51.97630156      -4.75699149      -2.86798213       0.41627257      -0.12128947      -0.17015734      -0.66795179      -0.51018969      -0.31513803
H      -48.54684275      -2.97507884       2.13133727       0.08458012      -0.24400899       0.08768382       0.38292482      -0.36427710       3.48818538
H      -47.94631993      -2.45342447       0.71466203      -0.19919719      -0.30037160       0.06956240      -0.57825912      -0.35092468      -0.44750278
H      -54.01247711      -4.96480996       1.71363367      -0.39731978       0.05042148      -0.37490045      -0.70042334      -0.10064757      -0.27079915
H      -53.04654703      -4.43598557       3.01508276       0.11792887       0.25005829      -0.17744396       0.17214525       0.11782765       0.22380455
C      -48.26521470      -9.30921751     -35.60346764       0.33351877       1.00634233       0.22805158       1.75444965      -3.63884662      -1.17661865
C      -48.62113927      -8.22706083     -34.82879909       0.10793421      -1.37916439       0.18719874      -0.97069173       0.28945856      -0.59208319
C      -46.83598970      -9.58642865     -35.78874703       0.35224429      -1.74057000       0.41764528      -2.10206125      -1.23895286      -1.20825457
N      -49.14073418     -10.20910417     -36.08738232       0.34379381      -0.45230408      -0.04780261       0.07121997       3.57332433       2.04860349
C      -47.64912121       6.71310247     -20.32235433      -0.48580828       0.23161735       0.33271558       1.08284369       2.52748663       1.36516214
N      -50.02403987      -7.90426509     -34.79050951      -1.44729114      -0.31431818       0.41558974       0.96252104       2.24106360       1.85533911
C      -46.22012542       6.28981666     -20.36432355       0.88652161      -0.70362203       0.38433310      -4.97830249       0.40134839      -0.28375306
N      -47.96144156       7.95130050     -19.76442694       0.60992518       0.17487075       0.28076201       1.51922100      -1.99910820      -0.32830745
C      -45.83905107      -8.79633736     -35.21005152       0.37377811       0.38502612       0.37208572       0.07448795       0.64641920      -0.83322198
N      -45.33561064       6.91332579     -19.53217650      -0.20145601      -0.20937854      -0.33758537       1.97965518      -0.95326729      -1.46100022
N      -44.62595766      -8.75631897     -35.79261674      -0.30917628       1.27618346       0.43497359      -0.15654615      -0.51714199       0.62812306
N      -46.47947627     -10.69875115     -36.70555474      -1.37342858       0.55741820      -1.27808748       2.94064505      -0.05877261      -0.64502994
O      -50.26213195      -7.03669809     -33.92082515       0.26237479       2.31793111      -0.54458072      -1.45368921      -1.08618681      -1.02707698
O      -50.86628760      -8.35748564     -35.54047733       0.90393652       0.35069408       1.11721353       0.05947257      -0.05905871       0.31308800
O      -44.21864430       6.42882538     -49.37443266      -1.77336896       0.92532296      -0.61892221       2.03746119      -1.03014799       0.24919012
O      -45.57221422       7.88747705     -18.88847521       0.28561750      -1.19239245      -2.61055838      -1.06626188       2.25827059       1.74871644
O      -47.26328990     -11.30571853     -37.43557864      -1.67181799       1.03391586      -0.32927431       0.48455338       0.68309112       1.38235839
O      -45.22305032     -10.98997786     -36.77033134      -0.20194309       0.69459088       0.81962085      -3.14611774       0.01777551       0.04895618
H      -48.82011205     -11.03676244     -36.44095212       0.26927924       0.07189987       0.14038577       0.66432993      -2.04678987      -1.30982135
H      -50.09437527      -9.94776346     -36.03016728       0.21268921       0.11566509      -0.06957133      -0.76212788      -0.18364173      -0.21443671
H      -47.18724247       8.39998297     -19.26079877       0.02011628       0.39084202      -0.35050046      -0.63535155      -0.34571157      -0.43724230
H      -48.91665706       8.15981636     -19.53724951       0.23001647      -0.27414979      -0.13138796      -0.06679532      -0.20465958      -0.25541312
H      -44.61722723      -9.51651397     -36.46585076      -0.24263027       0.63429223       0.15711744       1.13817390       0.21838852       0.09788875
H      -43.87920391      -8.71430285     -64.96528911      -0.17379429       0.07146138      -0.30657555       0.26542467       0.25268127      -0.06452863
C      -35.14601066     -16.23462944      10.27564074      -0.89943277      -1.51462687      -0.84919548       1.47212747       1.59603243       2.16594964
C      -36.30228489     -17.07157556      10.30260161       0.09972031       0.50076331       1.44037026      -1.03420176       0.64621050       2.58831742
C      -34.85554779     -15.31743820      11.43576796      -0.46813111      -1.06113038       0.19687102       0.32657335      -0.74042417      -1.05370849
N      -34.19252075     -16.30998249       9.39160320      -0.34837181      -0.05904590       0.50892823      -0.40823100      -1.57283681      -2.57913458
C      -37.00198071     -17.14954609      11.55060932      -0.22755737      -0.14667347      -0.75138778      -0.64863064      -0.03125175       2.15397887
N      -36.86760579     -17.72742062       9.21080657      -0.92352604      -0.92234546       0.04695148       0.01411467      -0.50071781      -2.95755971
C      -36.56717754     -16.35520212      12.72686789       1.23354683       0.06829474       0.38663659      -1.09445884      -2.17269771      -1.09838395
N      -37.96788449     -18.09827015      11.66705505       0.56930460       1.19358574       1.09569860       0.28268566       0.09719861      -2.92158257
C      -35.39870690     -15.55510546      12.74284949       0.28905190      -0.11549710      -1.30854541       0.37259131       1.48852873      -1.96903918
N      -37.36709360     -16.52813371      13.90392728      -0.60515909      -0.64151202       1.51219197       0.40522119       1.44928815       0.23905141
N      -34.93952635     -14.88170102      13.77766023      -1.59257313       0.90221510      -1.68187908      -0.20372287      -0.50309264       1.51279851
N      -33.74289799     -14.34020979      11.29713066       1.01971047       0.21495824       0.03693450      -2.14079428      -2.21918619       1.01278383
O      -38.06689437     -18.09695581       9.08216746       0.63032713       0.40396526       0.48011798       1.20520639       0.58887832       1.24455690
O      -36.12045298     -17.88285108       8.24985558       1.04881565       0.24609098       2.15787042       0.64136206       0.03271387      -0.34596468
O      -36.87969176     -16.17809086      14.99476957      -0.44159351      -0.54367493       0.37949149      -0.36907253      -0.49581949      -0.36372680
O      -38.53409651     -16.85351339      13.78501721       0.84925874      -0.43747568       1.74158624       0.03335342      -0.37655927       0.56981980
O      -33.34571293     -13.80865832      12.32194290      -0.79598945       0.27384716       0.18284732       1.06308967       0.84802794      -0.50435487
O      -33.30955192     -14.11903984      10.19775105       0.58964389      -0.41927416       0.31038620       0.79218703       0.92257274      -0.66873198
H      -33.49399221     -15.63243894       9.17750769      -0.11648636       0.42102424      -0.23256699       0.19574596       0.71978815       0.75129186
H      -34.25658364     -17.01416866       8.67421270       0.13861296       0.11762890       0.05222514      -0.48345250      -0.09387177       0.07368010
H      -38.72592736     -18.05918024      12.32640508       0.20034184       0.10787140      -0.20657132       0.55921062       0.38352945       0.24712534
H      -38.23149297     -18.44893155      10.68479065      -0.02513267       0.06152217       0.07946894       0.14645115       0.53034399       2.28191819
H      -34.08989364     -14.31891084      13.80740253       0.11605821      -0.24301002       0.50304292      -0.74140685      -0.46151564      -0.77542970
H      -35.35335773     -15.13315669      14.64584893      -0.03197037      -0.12118649      -0.01629014      -0.37338360      -0.17282372       0.59536943
C      -24.01442802      -2.81696378       7.17882151      -0.16081819       0.03401131      -0.66888974       2.30970481      -1.52493279      -2.33283214
C      -22.87800455      -3.60447144       7.62949544       0.09927539       0.22625446       0.16146781      -2.04617319       0.67317981      -2.78153972
C      -24.14779648      -2.62019222       5.65536827       1.06969836      -0.14646929       0.98359369      -0.94248402       0.56927700       5.64298141
N      -24.87650965      -2.25673101       7.95095813       2.44541608       0.06012457      -0.87520639      -0.99853217      -0.16949799       4.22375987
C      -22.12058497       9.83131932      20.49958857       0.08044003       0.60391284       1.10881333      -0.33970105      -0.12709609      -0.28255038
N      -22.48242546      -3.57339393       8.98202577       0.72094428      -1.78059722       0.13281447      -3.32686167       3.65281623      -1.98941123
C      -22.39518189       9.87650315      19.08515293      -1.07792075       1.31941060       0.26247156       0.38164621       1.30315868       0.12543286
N      -21.16700442       9.09963806      20.99809398      -0.01808119       1.02670776       0.85545729       0.26480364      -0.36585750      -1.08596616
C      -23.39595979      -3.32487195       4.80776196      -0.95319779       0.43608703       0.27476009       2.16432826      -1.68003974      -3.06317134
N      -21.45149323       9.31475970      18.01957202      -0.36973419      -0.52470476       0.05626430      -1.07993533       3.64876880      -0.87427466
N      -23.60548481      -3.27092349       3.48189222       0.27039162       0.76786817      -0.77026949      -2.97883809       1.51597652      -0.62810214
N      -25.03706578      -1.57952860       5.22068476       0.98756281      -0.39924557       1.69366481       0.08194899      -1.33210892       0.37079417
O      -23.07531850      -2.65741886       9.60566144      -0.47562422      -1.28672645      -0.91283394       1.40967696      -1.62972617       1.12795081
O      -21.62021983      -4.27936144       9.37232679      -0.06793121       0.21882351      -1.29933041       1.67903579      -1.29856903       2.89619643
O      -21.24926611       9.91861537     -12.96740929       0.51756307       0.99978868       1.29151521      -1.03067373      -2.29608099       4.03058928
O      -20.83214683       8.36174078      18.37193448      -1.97891076       0.89835077      -0.25122516       1.35241631      -1.39055787      -0.06527860
O      -26.12326631      -1.49842339       5.79296856       1.21587782       0.35975870       0.29536440      -0.22735452       0.52264865      -0.55399944
O      -24.66026619      -0.88954905       4.31291946      -0.77128200      -0.03921364      -1.29935235      -0.37523704       1.03251709      -0.66855331
H      -25.59713006      -1.84083164       7.51007548      -0.21237671       0.40430527      -0.42008785      -2.79038789       1.75928812      -2.05176158
H      -25.15301757      -2.34902398       8.96910224      -0.10666912      -0.33983478      -0.08840196       2.04418201      -0.33277051      -1.78492147
H      -20.51954131       8.77627226      20.34112093       0.02045437      -0.41899809      -0.22698004       0.89997507      -1.08578886      -0.34813674
H      -21.21945320       8.82364973      21.95757771      -0.22101572       0.17562112       0.07198099       0.89809930       0.00899153       0.02927909
H      -24.42255157      -2.71756462       3.15520746      -0.06831853       0.12938461       0.28439666       1.38359699      -0.62483576       0.34960781
H      -22.86483434      -3.36920083     -27.00330491       0.32589767      -0.04316407      -0.13616854       0.75153899      -0.44105051      -0.37107742
C       -1.40906314      11.61918728       7.47685526       0.46111492       0.06849984      -1.03404206       4.48135444      -2.22966401      -4.93158100
C       -0.00920576      11.33598116       7.42565839       0.15171029       0.94242473       0.73168846       0.78399151       0.08314295       0.74450541
C       -2.07188810      11.56081493       6.13438159       0.64274293      -0.49847213       1.34903141       0.09511706       0.21315563       3.04704813
N       -1.97807627      11.77515296       8.58174006       1.74282147       0.96254131      -0.89189297      -6.24729178       1.95228016       0.30207493
C        0.86996986      11.11322259       6.30122661      -1.05200491      -0.00143469       0.70301030      -6.53606257       1.35972336      -2.02129264
N        0.68694749      11.46345940       8.74903877      -0.09701028      -0.79367177      -0.37529376      -1.64976049      -1.35225061      -1.80100591
C        0.16484954      11.13329614       4.98387627       0.50581281       0.39739940      -0.32223146      -0.42724516      -0.15181693       1.02348511
N        2.12578789      11.06293126       6.43437376      -0.34349756       1.27187952      -0.37420343       3.04273526      -1.51003992      -1.84339413
C       -1.30621221      11.31436751       4.94735576      -0.71151503      -0.46433490       0.84161029       1.68281898      -0.81811050      -1.47886867
N        0.90533548      10.66278444       3.75349290       1.19035584       0.91782825       1.60866043      -2.37258658      -0.46119731       2.52593359
N       -1.95426665      11.18057753       3.78642358       0.26715397      -0.23711389      -0.18322513       0.94423874       0.42063228       0.39885488
N       -3.49132959      11.54191746       6.22413404       1.20679590       0.49784045       1.08440208      -1.54950505      -0.64017595      -5.47221076
O        0.26960619      10.81040752       9.71958544       0.81681072       1.10546312      -0.33014148       1.20009564       1.35534282      -0.62184502
O        1.63886788      12.21132513       8.66612945      -0.41927384       0.09946615       0.14203702       0.79323230      -0.08445154       1.99261034
O        1.78967971       9.86835999       3.93526582       0.73187113       1.95778466       0.99229551       1.90106786      -0.30946036       0.54247509
O        0.47872172      10.89510507       2.64463406      -0.13359740      -1.15051169       0.39608978      -0.58578430       0.90037414      -0.96201900
O       -4.20123579      11.22707959       5.18404590      -1.62853551       0.60983166       0.82521425       2.20827800       0.22441768       1.38413565
O       -4.11486229      11.88050921       7.18346829      -0.12339498      -0.73307216       1.40367192      -0.39995062       0.67873896       2.56275929
H       -2.99278989      11.98030451       8.35716597      -0.02213760      -0.14857948      -0.09565722       0.91369209      -0.15100365       1.06734745
H       -1.82565701      11.58110943       9.51610582       0.01518222       0.01821757      -0.04473794       1.75949756      -0.66085310       1.53963564
H        2.67709390      10.67495582       5.67092025      -0.06451709      -0.26997853      -0.11046124      -0.13867218       0.35749930       0.38375982
H        2.49520070      11.44133357       7.24544557      -0.14160146       0.10289678      -0.28839168       1.31754727       0.36722304       1.55204240
H       -2.95824688      11.17271545       3.93933643       0.32504485       0.23528630       0.06096210      -0.03565391      -0.14445224      -0.85913408
H       -1.39321153      10.98854898       2.93098149       0.36323151       0.16481102      -0.09169507      -1.01412073       0.23226595       1.09431402
C      -33.47814285      17.04767894      48.97532739       0.42659353      -1.52199769       1.19220547       1.68605074      -2.53543898       0.24357374
C      -32.82695203      17.79816375      49.97145101      -2.44606260       0.62546393       2.26266796      -2.41775769      -0.33152032      -1.51401509
C      -33.05801298      15.65291720      48.97807258      -1.26225575      -0.71551065      -0.32780498      -2.30163775       2.02208500      -0.95763565
N      -34.27731626      17.52374858      48.03321546       1.16060704      -1.45092413      -1.42854222      -1.09486358       0.24737613      -1.05826832
C      -32.05408419      17.36174413      50.99491273      -0.43847086       0.55851021       0.62997607       0.74374509      -2.32975974      -0.61947455
N      -33.03649486      19.15627329      49.84152900      -1.38026422      -1.21850584      -0.48067278      -1.38837632       2.20727349      -0.90963748
C      -31.82506213      15.97664898      50.96188235       0.74697506      -1.40652056       1.41640938       2.25438533       0.14911453       1.75720112
N      -31.43003916      18.19427633      51.79991485       1.09303670       1.99084720      -0.18692918       0.21590343       1.90772208       0.66703768
C      -32.20470364      15.13129519      49.90056840      -0.86166495      -1.28371931      -0.93645643       1.14144520      -1.04852896       2.02751432
N      -30.69614133      15.57506275      51.87412046       2.99661040      -0.87349678       0.98059622      -3.35772252      -0.15018938      -2.02141160
N      -31.77268499      13.85838412      49.89099385       0.52998800      -0.33211915      -0.27537651      -0.60339899      -2.13457268      -1.43895906
N      -33.83314809      14.80229969      48.14017140      -0.62721032      -0.59090135      -0.54972544       1.16351064      -0.97173016       0.92463943
O      -32.06521434      19.82340580      49.58822322      -2.38328127      -0.34906592      -0.09209574       1.71478088       1.27445069       0.12355030
O      -34.16301822      19.61930159      49.83234000       0.44558065      -0.21226771      -0.20174133      -0.42761192      -0.16925629       0.29944207
O      -30.65941800      16.09105835      23.14402148       1.49895067      -0.12656931       0.32795792       1.03914474      -0.58589717       0.18777874
O      -29.98046896      14.71301569      51.42137974      -0.26985772      -0.63842747      -0.75602628       1.77495506      -0.17592620       1.22094310
O      -34.22465582      13.74712108      48.53720661       0.44805877      -1.54152081      -0.36550383      -0.32474811      -2.66349754       2.35422788
O      -34.06367054      15.09472640      47.02229100      -0.54697261       0.24498374      -0.10981833      -0.68990206       2.57283238      -4.06768298
H      -34.72666774      16.98644620      47.27004379      -0.50584557       0.17995549       0.00773552       1.14975224       0.13001074       1.11915342
H      -34.55746419      18.47894540      48.05752693       0.16233185       0.30522488      -0.27830264      -0.15258694       0.34446862       0.24929759
H      -30.98049857      17.86300675      52.65131440      -0.12615658      -0.22060400      -0.26294382      -0.17098315       0.38184402      -0.59067765
H      -31.43589142      19.15123471      51.44189454       0.03899339       0.16059846       0.30447246       0.41086467      -0.62485812       0.98150696
H      -32.17966115      13.14818048      49.26340849       0.05554051       0.35266198      -0.43669957       0.08982367       1.32278969       0.53627594
H      -30.97873879      13.45773069      20.54295587      -0.19886215      -0.17190979       0.01162943      -0.66916543       1.22522018       0.12332906
C      -63.17377577      -7.18943923       8.55938754      -0.58138962      -1.58067344      -0.03245895       0.61297974      -1.75342008       1.44716055
C      -63.35339569      -7.00076631       7.20445670      -0.90580014      -0.18446243       0.47237861       1.73272811       0.66822043      -2.45969599
C      -64.19085853      -6.71820048       9.37958368      -0.36511337       0.05260127      -1.60226094      -1.51205809       0.31338114       0.39510302
N      -62.17151151      -7.96403933       9.01419486      -0.35415383      -0.76575784      -0.37469044      -0.42298060       1.10889965      -1.79962735
C      -64.04398312      -5.85010946       6.75134484       0.33805032       0.73587308      -1.13747513      -2.34522026      -0.81578979      -2.77193163
N      -62.49673159      -7.69699285       6.27171103       0.75344935      -0.47182694       0.58598851       1.17587871      -0.25807640       1.55549067
C      -65.12795179      -5.45466893       7.54668437      -1.81170064      -0.86786861       1.47892111      -1.27428916       1.16328662       1.34503587
N      -64.07008524      -5.42127612       5.43855669       0.67238994      -0.42574647      -0.45392105       0.19869419       0.71774259       2.84057918
C      -65.34962668      -6.03997740       8.82765143      -0.40664386      -0.05170066      -0.40293827       3.07906736       0.17948630      -1.63082690
N      -66.05846494      -4.38611774       7.15272941       0.05825750       0.22101995      -0.27293349       0.91474162       1.21126654       0.81476648
N      -66.44716666      -5.89037393       9.46431534      -0.37792679       0.13365476      -0.63466825       0.27801305      -2.02959021       2.80572346
N      -64.25777601      -7.14462303      10.75749121      -0.03253115       0.33651691      -0.15697147      -0.58858410       0.23211523      -0.77293939
O      -61.62840753      -8.51795403       6.73845426       0.90480441      -0.37232578      -1.77822849      -1.80028943       1.62166928      -2.66534015
O      -62.62899011      -7.41968826       5.08377283       0.22138334       0.62465482      -1.23384863       0.70210697      -1.39854065       0.85694943
O      -67.12117988      -4.13276190       7.74909531       0.19542838       0.27532812      -1.01739633       1.22871921      -1.02537693      -1.04046540
O      -65.61156000      -3.58538789       6.30790515       0.93867440      -1.65228766      -1.73759715      -0.86854629      -0.43603662       0.12916818
O      -65.35840671      -7.55715723      11.13114797      -0.98805059       1.75733112       0.64395553       0.53798151      -0.05000294       0.67190792
O      -63.27092491      -7.05737208      11.46224835      -0.27331913      -0.00261576       1.44357470      -0.02894004      -0.23657696       0.07902783
H      -62.07322318      -8.11217766       9.94163193      -0.36029890      -0.34274791       0.27648941      -0.04507066      -0.29829691       2.99490843
H      -61.49195959      -8.34113394       8.36480388      -0.19904171      -0.01736759      -0.20322926      -0.52834414       0.10229698      -0.09903524
H      -64.65422039      -4.58782210       5.34984077      -0.56216436      -0.02394916       0.00656371       0.34468207      -0.60663091      -0.68055259