1296
Lattice="-43.78259489261246 5.4000967498811665 21.139262403641705 0.0 15.540648589443393 9.192513111089541 0.0 0.0 -29.832529328506507" Properties=species:S:1:pos:R:3:momenta:R:3:forces:R:3 energy=-1487785.2126459102 free_energy=-1487785.2126459102 stress="0.0004586177726056122 0.00032308201613089185 0.0014047708529346874 0.00032308201613089185 0.003979109444076893 0.0007502660250862248 0.0014047708529346874 0.0007502660250862248 0.002789333887316634" pbc="T T T"
C      -25.11102874       6.30992923       8.42451037      -0.83761441       0.18588377      -0.80514192       0.26553629      -2.90540040       0.79847968
C      -25.05152323       5.35170531       9.54760572       0.80345906      -0.01208603       0.76059502      -0.22303457       1.38070238       0.35680166
C      -25.86719060       5.81311175       7.28871780      -0.16196148       0.75908633       0.49412046       0.47734917      -0.77429932       1.22983219
N      -24.39826594       7.42923757       8.49825988      -1.54348258       0.63868612       1.01420257      -0.51155024      -2.21967570       1.60890282
C      -25.82191636      19.71351762      18.89152949       0.59354157      -0.57078794       0.19915024      -0.03193026      -0.69040976      -1.67155449
N      -24.43130722       5.89029778      10.77525164       0.58847468       0.10749674      -0.81953231      -2.89482232      -1.18650230       1.10499270
C      -26.59487319      19.27341125      17.67823931       0.57420170       0.45394014       0.45772231       1.05815635      -0.52226790       2.28351132
N      -25.66779775      18.97895954      20.00271681      -0.04542113      -0.36670947      -0.14533444      -2.11867863      -2.38839084       1.11155309
C      -26.60297156       4.53207874       7.30237195       0.01278851       0.42854521      -0.38898354       0.48115305       1.78196882       1.81341478
N      -27.35375664      17.97945613      17.78597823       0.65581943       0.11529006       1.26431468      -0.37049116       2.10190296      -1.78494908
N      -27.46271487       4.32648708       6.32960171      -1.25837464      -0.69099346       0.57640941       0.35662119      -0.97893059       1.47862850
N      -25.88868595       6.60354487       6.12160352      -0.43277909       0.40834048       0.35116944       1.55781566       1.53491444       3.07604303
O      -23.49674108       6.62153266      10.65945741       0.43712083       0.56988163      -0.05684644       2.27955798       1.01773551       0.15929682
O      -24.95162487       5.68320357      11.89374134      -1.37074802       0.18157394       1.94135856       0.80937748      -0.16488890      -1.33339771
O      -27.53849829      17.43227658     -10.98645565       0.60458628       0.84444073       0.09928058       0.54977941      -0.17330252       1.00692445
O      -27.88053205      17.57051962      16.75030029       0.05319204       0.35158318      -0.21648593       0.36653360       0.06899884       0.16329893
O      -26.16327671       6.12124463       5.06914384      -0.55607688      -1.26091844      -0.01688251      -0.61388345      -0.31394776      -2.53677685
O      -25.51256147       7.79259423       6.27857203      -0.63201617      -0.68465289      -0.69978256      -0.83766103      -0.51133913      -1.20561218
H      -24.72722583       8.06221911       7.87150651      -0.18462069      -0.27133673       0.16123947      -0.21468790       2.40712541      -2.01059679
H      -23.93843780       7.62807475       9.38420182       0.25384398      -0.37501481       0.34304350      -0.15270606       0.25445176      -0.77724106
H      -26.31379322      18.12156119      20.19916564      -0.18364839      -0.38624869       0.10622331       1.60645030       2.33164474      -1.28278582
H      -25.27650915      19.37739710      20.86784092      -0.05457662      -0.20578628      -0.27661458      -0.26270259       0.10402564      -1.22527871
H      -27.36325235       4.90210536       5.54945884       0.26502259       0.03016306       0.15786013      -0.63178562       0.55168154      -1.55271749
H      -28.22443869       3.78324977     -23.17798846      -0.18866175       0.00006913      -0.39672885      -0.62369164      -0.79769312      -0.90883585
C      -44.15422073      12.34629446      -4.84619467      -1.58619478       1.14843946      -0.78250744      -1.62880387       0.86284188       1.00137438
C      -44.96926979      11.31735760      -5.39569627       0.74244232      -1.03493299       0.44666843      -0.43279059       1.19128797       1.83961476
C      -44.82186314      13.21715299      -3.92578871       0.73120692       0.52557634      -0.22902214       0.90747231       0.05262798      -0.60275864
N      -42.89708355      12.57332836      -5.18080947      -0.40537592       0.08767047       1.54565730       0.92416600      -0.25919962      -0.42381564
C      -46.30706151      11.07319990      -4.90195360      -0.71822147       0.99260306       1.17299868      -0.30243242      -0.55617800      -0.71463086
N      -44.53382668      10.64027137      -6.50310360      -1.47009794      -0.10281072      -0.24870738       2.57952679      -0.31677707      -0.98777091
C      -46.90160680      11.93473401      -3.93700478      -0.27474976       0.14919010      -0.53975379       0.26955089       0.38098796      -0.40080821
N      -46.89631165       9.98340049      -5.42464666      -0.52064820       0.06060558       1.27813150      -1.74083262       0.38908824       1.07020662
C      -46.15267424      13.14860432      -3.49665735      -0.30116081      -0.35774356       0.35791264      -0.40142647      -1.48161804       0.39509830
N      -48.19342002      11.52683507      -3.39300437      -1.14238158       0.99296108       0.84556849       0.30747581       0.13160665       1.41380422
N      -46.65750279      14.02570128      -2.61189250      -3.15163551       0.87609850       2.55144626       1.02665323      -1.12711766      -1.67629592
N      -43.95547321      14.26011197      -3.29946793       0.73819523      -0.85189931      -0.50862155      -0.69643107      -1.48619345       1.06859882
O      -43.33732125      10.52979233      -6.78735436      -0.20293205      -1.57637414      -0.23504686       1.98757217       0.75735623       1.32605404
O      -45.27515794      10.14830633      -7.28513302      -0.03767130       1.15234609       0.10884068      -3.31497041      -1.28280434      -2.17057316
O      -48.59850145      12.13115546      -2.38628570       0.57377985       1.72768808       1.13781928       0.37940415       0.55708530      -0.64209225
O      -48.81676603      10.55211043      -3.79497422      -0.45373272      -1.39460838       0.28633082       0.55009175       0.51603369      -0.61538943
O      -43.05675780      13.91982390      -2.57590976       2.01526913      -0.81598004      -2.25526649       1.13671203      -1.70561092       0.31681647
O      -44.23367012      15.40499852      -3.39560721       0.13779461       0.31080300      -0.72627923      -1.57463402       2.65793187      -1.18840278
H      -42.48375653      11.80327115      -5.70393336      -0.32548714       0.34730818       0.10217999       0.13459797       0.86384225      -0.16308899
H      -42.46534832      13.49902509      -5.10276038       0.00025703      -0.18193272       0.35502504      -0.31966129      -1.09346847       0.13095973
H      -47.89861230       9.77513108      -5.32646891      -0.00842008      -0.06282196       0.00358807       1.06929086       0.53258351       0.48285464
H      -46.42412824       9.53686159      -6.16864928       0.27139390       0.10068589       0.12402219       0.13225735      -0.46368438      -0.56696159
H      -46.02390008      14.69856381      -2.21924764       0.14667929       0.15627464       0.35750827      -0.82288352       0.18446091       0.26590125
H      -47.56118263      13.73885487      -2.31156459      -0.14875614       0.46083784       0.14605368      -0.57387545       0.38841373       0.95095083
C      -41.10433582       7.20929821     -32.78959526       0.16401616      -0.50822742       0.72295145      -1.31182806      -0.36209245       0.59383494
C      -39.95418087       6.97034869     -32.04802153      -0.44785007       1.04265195      -0.55223360       0.09200401      -0.66957300      -1.81915203
C      -42.23903158       6.51466761     -32.35241072      -0.02161463       0.79518545       0.27871655      -1.07049111       0.76020016       1.09476617
N      -41.17734380       8.20610444     -33.68610434      -1.80992685       1.38456348      -1.27692108       0.90642428       0.24416748      -3.38414566
C      -39.93421586      21.52377350     -21.85616730      -0.91383005       0.09718225       0.85910932       1.24307973       1.28613057       2.09207802
N      -38.70340721       7.36670394     -32.65048043       1.43989745      -0.23074351       1.08847937       1.45287845      -0.01610411       0.83272647
C      -41.13059561      20.80378068     -21.43579875      -0.24310548       0.07619217      -1.19638670       0.29702174      -0.46861043      -0.03210117
N      -38.82733926      21.54254694     -21.09897379       1.12551790       0.26025221       0.41082261      -1.92390685      -2.39786096       0.79988931
C      -42.35951306       5.72838312     -31.13957974      -0.14134039      -0.43647378      -0.36940063       0.33677245       0.64913302      -2.36622832
N      -41.07914731      19.65449235     -20.50656300       0.30163070       1.14723175      -0.12510496       1.44774616       2.54387819       0.65016274
N      -43.54922707       5.41039033     -30.65896672      -1.63192232       2.14606237      -0.77498779      -0.88701366      -1.51142702       0.46971932
N      -43.42716041       6.84771914     -33.06811007       1.58593981      -0.11312757      -0.17357020      -2.60695013      -0.19561574      -3.02068692
O      -38.54361771       7.47066784     -33.86071014       0.14082882       1.03335791      -0.54286870      -1.14525928       0.15053681      -0.11482612
O      -37.74188496       7.52107480     -31.90615518       0.26147035       0.55584955      -0.47744666       0.08305072       0.46930216      -0.23564446
O      -40.01888950      19.55426976     -49.70957560       1.01378896      -0.16807568      -0.56367866      -0.75179006      -1.00146689      -0.50635960
O      -42.04792912      18.94029571     -20.27326861      -1.04458337       1.15695453      -0.89349610      -0.18865424       0.14757360      -0.59706625
O      -43.36817384       6.86904225     -34.31495468       0.73064743       0.54700474      -0.41339640       1.49181705       0.28010313       0.69850066
O      -44.55277596       7.05478340     -32.61429817       0.08938668      -1.88106918      -0.04005771       0.69268125      -0.34942624       2.08378159
H      -42.01781851       8.26419717     -34.32960364      -0.18840186      -0.18119596      -0.23741222       1.41547349      -0.40513058       1.40451545
H      -40.29798990       8.18061719     -34.27587229       0.00648693       0.38222598       0.01482914      -1.23875230       0.59311871       1.05387640
H      -38.84599432      20.83674088     -20.41944013      -0.18213317       0.08029751      -0.13361681       0.09924613      -0.96384804       1.16783778
H      -37.95627522      21.93003309     -21.27021509       0.30203413       0.36538669      -0.19011444       1.06937390       1.09394277      -1.10064934
H      -44.44589435       5.60457690     -31.16214151      -0.15936275      -0.07320089      -0.31704218       1.55464000      -0.18889592       0.68164401
H      -43.42960401       4.56065297     -59.91521084       0.22323521      -0.09190041       0.34978635      -0.90333078       0.58885220      -0.31899178
C      -31.03050649      -2.38947947       9.87390935      -1.61967262       0.16055838       0.26428416      -1.85409145      -1.11196928       0.09826183
C      -30.90900868      -1.82260308       8.63133367      -0.08541789      -0.17281110      -0.72862484      -1.58890393      -0.79785023      -4.70050524
C      -32.18469689      -3.28756475      10.04932739      -0.01904491      -0.51687216      -0.46618872      -0.48786167       0.49556365       1.32505360
N      -30.28617255      -2.16880700      10.91033644       0.13915320      -0.97872893      -0.53813663       2.30587686       0.74513602       0.78192378
C      -31.84536392      -2.14149462       7.41828240      -0.12115587       0.20502936      -0.73954591      -0.76863295      -1.10777062       5.67944813
N      -30.01547350      -0.80639761       8.38466245       0.17490313      -0.49767140      -0.61968906      -0.36183425       1.79715049       2.14393874
C      -33.08218411      -2.73929249       7.86886637      -0.30097356       0.25878423      -0.17874032      -1.13853600       1.06164433      -0.70822425
N      -31.55351375      -1.80838379       6.22470569       1.06978650      -1.33828878       0.02758640       1.12706560       1.79301070      -1.28199753
C      -33.35698725      -3.09564283       9.27198875       0.70032938       0.19812360       1.21704243       0.51888910      -0.63516244      -2.42593395
N      -34.18998513      -2.79700684       6.81886192       1.25742821       0.59116525      -1.40034326       0.70155691      -1.72359977       1.28958216
N      -34.58946560      -3.39380358       9.61899049       1.77045738       0.71973194      -0.79019275       0.03097815       0.70907243      -0.11417373
N      -32.42838921      -3.83565423      11.34183964      -0.26668795      -1.34661854      -1.17033497       0.38083311      -0.27605349       2.13901446
O      -29.47072703      -0.32290435       9.37995369      -0.00278482       0.71656472       0.89041676       1.03236391      -0.04045278      -0.35774852
O      -29.97554552      -0.24993908       7.29760533       0.64784755       0.65510348      -1.53451136       0.90449149       0.39080464      -0.93721091
O      -33.77554294      -3.22079119       5.73831674       0.49856698       1.85476004      -0.13928463      -0.78580036       0.83126316      -0.02443047
O      -35.40641298      -2.65105142       7.07449445       0.55121160       0.68297383      -1.01541424       2.06829995       0.29478478      -0.39889367
O      -31.63409661      -3.56628282      12.29287400      -0.98706405      -0.13543537      -1.52715288      -1.12433053      -0.85938701      -0.46587287
O      -33.38284242      -4.56596998      11.58188549      -1.05209627      -0.77028574      -0.90318338       0.21572959       0.72896469      -0.83709929
H      -30.55792591      -2.67692497      11.73872972       0.38315138      -0.01836393      -0.50909482      -0.27335689      -0.24034159       0.49085068
H      -29.44373878      -1.60979824      10.96246607      -0.37658907       0.49502745      -0.25001433      -0.61066114       0.08200912      -1.03718828
H      -32.14205497      -2.05555082       5.47022151      -0.25814916      -0.20738680      -0.01550419      -0.49153601      -0.40440116      -0.67000981
H      -30.83366805      -1.07172973       6.12167857       0.05731958       0.15213039       0.18589735      -0.43715895      -1.09347459      -0.09723625
H      -34.92356997      -3.69699965      10.49885989      -0.47830360      -0.21881225       0.15849225       0.72563561      -0.40576892       0.90409948
H      -35.34507243      -3.26232065       8.99761984      -0.41821452      -0.39565504      -0.26878786      -0.33474223       0.21557526      -0.92925833
C      -19.88749496       0.94176036      -3.23910950      -1.09617981       0.82572800      -0.53464584       0.05076891       1.16636634      -0.94090623
C      -20.56602481       1.95595912      -4.05958917      -0.15783747      -0.09673180      -0.28199155      -1.43180550       0.64124036       0.95086159
C      -20.57355455       0.25374103      -2.22401501       0.53337978       0.03041414       1.14670248      -1.43234828      -0.50874775       0.89925727
N      -18.59464994       0.76837015      -3.43851709      -0.93732411      -0.31873778       0.99804894      -1.67082194       2.32890504      -3.13389167
C      -21.95761843      17.85432334       5.39582958       1.76620749       0.97456101       0.35424395       1.16694707      -3.86583340       4.67059711
N      -19.86250423       2.83652943      -4.95941587       0.05600182      -0.81856258      -0.02714769      -2.25461902       2.04069694      -1.38847580
C      -22.68120044      17.05776633       6.48350783      -0.16402094      -0.24923535       0.01613612       2.65354445      -0.66548921      -0.14515362
N      -22.60661625      18.88786014       5.07644874      -0.59426647       0.85457002       1.99467517      -2.00905940       0.05685586      -0.03108515
C      -21.88065912       0.61347960      -1.82597102      -1.04580677       0.75985637      -0.74974464      -3.17573737       2.58140981      -2.68701934
N      -24.13509977      17.10937623       6.56331216       1.94816125      -0.24359164       0.87287739       2.90852351      -1.18783120      -3.26317593
N      -22.51806641       0.13258256      -0.80050780      -0.92949331       0.31146161       2.48019907       0.46751982      -0.40309929       0.58762898
N      -20.11024172      -0.99335784      -1.70345372       1.06168458       1.14168549      -0.55593700       2.32215707       1.18337380      -0.98669643
O      -18.84073875       2.48981788      -5.46887695      -3.09243905      -0.90008816      -0.01378152       2.45331872      -1.41071531       0.15558607
O      -20.35237102       3.94393983      -5.36169275      -0.34549178      -0.43145602       0.51226499      -0.14387043      -1.70139083       1.73419287
O      -24.64415108      17.40948750     -24.36186946      -0.28165690       0.26316639      -0.81893985      -1.06427692       1.19368356       0.08672129
O      -24.78266223      16.61681423       7.43654594       0.71640447       0.15304405      -1.82199576      -0.96185658      -0.31571415       2.45033148
O      -19.13509463      -1.43952534      -2.29638898      -0.33412983      -0.03701869       1.19971713       0.31101361      -0.97446312      -0.04722608
O      -20.54901833      -1.52989438      -0.70799166       1.55279005      -0.63344576       0.07545308      -0.78747083      -0.22704969       0.70600108
H      -17.98248541       0.35206947      -2.86475956       0.13765389       0.11860185      -0.08135139       1.88254213      -2.28184282       2.69212569
H      -18.20685325       1.29770478      -4.20050371      -0.25066131      -0.07435326       0.25549861       0.16438454       0.08807884      -0.22647839
H      -23.59619292      18.78455126       5.21323771      -0.01069149       0.04392953       0.02577517      -0.47880806       0.55348168      -0.27423785
H      -22.21715367      19.49783148       4.47463917       0.01731516      -0.24541075       0.01768309       1.30291374       2.59410960      -2.68600977
H      -21.96251702      -0.51879239      -0.30080233       0.25111207       0.12489918      -0.13052079      -0.21204153      -0.87174635       0.94520683
H      -23.51698566       0.21717732     -30.56855047       0.10496430      -0.02462235       0.03276322      -0.19797329       0.08847749       0.05602962
C       -6.08062481      18.45892589       7.07257632       0.99576497       0.14351610      -0.77727233       1.24366036       0.51674410       2.64651944
C       -6.59003907      18.01901414       5.81281862      -1.01927524      -0.17696954      -0.01795219       1.88671088       1.41845628       1.64436736
C       -6.71933320      17.99604635       8.28763098      -0.72067543      -0.50007325      -0.32771634       0.84013130       0.24863931       0.12195809
N       -5.01691384      19.23852675       7.33359561      -0.35615352       1.07370672       1.40823279      -0.00641261      -0.13758745      -0.31378393
C       -7.80380706      17.33890322       5.72725966      -0.14932808       0.26783921       0.85690114      -0.86564720      -0.36042228      -0.96003543
N       -5.79374236      18.44348731       4.73022913       0.85724671      -0.64501692       0.73638029      -2.03373504       0.56659191      -3.25765904
C       -8.51473007      17.16093369       6.90615696       1.31028660      -0.43410427       0.38128606      -1.75842355      -1.60451153       1.31011615
N       -8.29829529      16.93027465       4.55562421       0.41599730      -0.46743493      -0.92680984       1.14665401       0.43432538      -0.56170725
C       -7.98358012      17.42718107       8.22564783      -0.67795598      -0.98120112      -0.04077877       0.19835135      -2.15220400       0.43877810
N       -9.69339698      16.24824621       6.80654935       1.63820321       0.28602286       0.35452028      -1.61628081       0.68963831       2.55618400
N       -8.46554659      16.90959872       9.38030146      -0.53432558      -0.42422894       0.81240889       0.44293193       1.56749266      -0.97850413
N       -5.97310925      17.89538556       9.60999806      -1.44592500      -0.07275209       0.27736019       1.66861984       0.93835740      -0.43134563
O       -6.28845557      18.49339085       3.59231270      -1.04652472      -0.44045233      -0.42355953      -1.30275223      -0.97180201       0.06703381
O       -4.69091346      18.86567723       4.84016147       0.40467566       0.53145758       0.34940604       2.74580357       0.34259446       1.74747499
O      -10.48867051      16.15996053       7.76723957       1.94737648       1.31971045      -1.80012096       1.41223978       1.06699927       0.65971792
O       -9.96978229      15.59439439       5.84875829      -0.63551612      -1.91267315      -0.63462413       1.08308650      -0.84334996      -1.98557991
O       -5.03110814      18.70130223       9.90544850       1.13024563      -0.21688142      -1.60971670      -2.29817475      -1.61558793      -0.71445125
O       -6.25815786      16.95884747      10.35096198       0.54277124      -1.36467947       0.07957341       1.03554288       1.14574115      -0.21299583
H       -4.81861143      19.51836111       8.30653614       0.01096206      -0.25729104      -0.15212618      -0.50652083      -0.44419818      -0.95550099
H       -4.37473974      19.56168459       6.63678896       0.25270747      -0.18740937       0.01802812      -0.33053538      -0.13667351      -0.33873927
H       -8.95493453      16.17675496       4.45425575      -0.18956814      -0.03167679      -0.20431870      -0.26708033       0.21235835       0.40477129
H       -7.77273814      17.25668146       3.77051891      -0.07788075       0.12504177       0.22123453       0.25347251       0.00151063      -0.44648353
H       -7.93679141      17.26998031      10.18194966      -0.18327096      -0.08806166      -0.05320359      -1.32318135      -0.94596824      -0.36361742
H       -9.38053885      16.57036135       9.38860566      -0.34851895      -0.11341600      -0.09810799      -1.41868657      -0.30161480       0.06143424
C      -29.85563965      29.25164371      44.25384954      -0.69068014       0.59104321       0.98737087      -1.30339579       0.23245907      -0.83925305
C      -31.16325222      28.75429165      43.97986161       2.41479368       0.17149580      -1.87264085      -1.49740871      -1.60109749       1.13983726
C      -29.29595746      30.09623747      43.26308453      -0.64223044      -0.73124083      -0.49139712       1.09669842       0.94941589       0.41631177
N      -29.27292603      28.93080336      45.37550778       0.55135652       1.12507020       0.78435407       1.36721569       0.05361545       0.05274275
C      -31.88285833      28.98026156      42.76097162       0.89703065       0.43942027       0.50288244       1.47509831       1.68807163       0.70972095
N      -31.88741573      28.07560376      45.08676587      -0.47914372       1.13876556       1.76468080      -1.55996551       0.99068327      -0.52341689
C      -31.24422182      29.85068443      41.89629466      -0.31310067      -0.22510328       1.46943490      -0.86944584       2.25712226      -2.57209201
N      -33.07437468      28.54362222      42.54321881       1.13660702      -0.13300316      -0.34261812      -2.17710349      -1.73807864      -0.29620458
C      -29.96373602      30.37525917      42.03048789      -1.11583607      -0.25076268       0.29413487       2.32528871      -1.28279978       0.47535918
N      -31.93152438      30.56607628      40.73089117       0.87078557      -0.19172186      -2.09550827       2.32484660       1.95645544       1.02680456
N      -29.30485770      30.82888333      40.96265619       0.66906576       0.56065291      -0.72642346       0.74951786       0.39035976       0.20389376
N      -28.00846779      30.65509563      43.56178556       0.35934867       0.50490937       0.29271602       1.58766141      -0.05043124      -2.73505806
O      -31.28486945      27.85887402      46.12670247      -0.36373625      -0.82595464      -0.68447173      -0.57760826      -0.68502877       0.37799623
O      -33.12469903      27.85905161      45.03370875       0.96536346       1.90730826       0.15074445       2.10189744      -0.06849673      -0.45450691
O      -31.53702359      31.75106199      10.70390154      -0.00080185      -0.48206922       0.35580374      -1.55726810      -1.88516047       0.53052833
O      -32.69270915      30.02713631      39.99957298      -0.81069272      -1.06521026      -0.90631687      -1.62185626      -1.39725153      -0.49769843
O      -27.33440920      31.25212131      42.66902170      -1.60125528       2.08058451      -0.26171799      -1.61348630      -0.21888365       0.71939119
O      -27.45380412      30.40989622      44.61025513       0.76161869       1.67918938      -0.32542244       0.26013940       0.01403640       0.97925464
H      -28.32330543      29.21484761      45.52271156      -0.03439265      -0.21210006      -0.40841972      -0.09919657       0.22165286       0.12995806
H      -29.79191762      28.28873750      45.93410373       0.34045307       0.30067364       0.31299710      -0.02767594      -0.38045433       0.57742396
H      -33.75262349      28.64290928      41.82542647       0.35523037       0.10778952       0.12060372       0.57547610       1.04395654      -1.14271494
H      -33.42413554      27.84976485      43.14591272      -0.47690819       0.28985438       0.04393614      -0.22308078      -0.38608847       1.37159333
H      -28.31010870      30.98848454      40.87077446       0.09547624      -0.52186966      -0.50314850      -0.50736284      -0.15467413       0.91899906
H      -29.76700239      30.78085128      10.26060683       0.15267336       0.08570435      -0.29029467      -0.33583998       0.19184146      -0.56276896
C      -63.22312676      14.19707900       0.95365611       1.27311002      -0.41106707       0.58942753       2.00010847       1.65690776      -2.33011986
C      -62.57149142      15.01320326       1.96674355       1.25332987       0.36428881       0.14404960      -1.12630130      -0.67767517       0.17173580
C      -64.27570497      14.70033679       0.13934110       0.15581949       0.87793981       0.96842251      -0.26962330      -0.13611352      -0.29528686
N      -62.54861085      13.17798902       0.52162857      -0.71736685      -0.50285492      -0.02999328       1.00245711      -2.96554700      -3.52029528
C      -63.31316673      16.09826830       2.53000448       2.30687325       0.02683095       0.26868453      -1.04530623       0.03519062      -2.07086997
N      -61.20372408      14.64780129       2.33590150      -0.67830201      -0.30391291      -0.25896199      -1.69111539       0.68934375       0.26307691
C      -64.63518394      16.40480048       1.85463146      -0.38092933       0.16000620       0.99930231       2.13711863      -1.42786630       0.40074396
N      -62.79574830      16.86959921       3.47398658      -1.18449873       1.01731036      -0.67968799       1.18013619      -1.57083688      -0.55686556
C      -65.09674249      15.74614802       0.61981938      -0.17743070      -0.25430085       1.63482734       1.39394651       0.28761539       1.83629875
N      -65.44534507      17.40056291       2.37212176      -0.42964685      -1.11703480       0.52285219      -1.12694273       2.06527877       1.85189700
N      -66.16429157      16.24720610       0.06139881       0.55637588       0.87487713      -0.31611640       0.94346812      -0.41821257      -0.28070024
N      -64.55274704      14.16017941      -1.21234548       0.80042792      -0.55323517       0.50776991      -2.11927365       0.24150070       1.78056479
O      -60.56950069      13.91747540       1.58254239      -1.79372261       0.38394940      -0.20732079       1.45145141       0.65330109       1.14480034
O      -60.74774428      15.09546452       3.38229653       1.47817903       0.27541818      -0.27018900       0.29079461       0.32516973       0.05979764
O      -66.67276285      17.35610723       2.14809989      -1.69345879      -0.66960639      -0.43469493       0.93961273       0.47826113       0.80545198
O      -64.98537392      18.31906631       3.10016964       1.13289056      -0.00281656      -0.69707109      -0.31316762      -1.52831947      -0.97223723
O      -63.70877060      13.68740534      -1.95388771       1.94052074       0.38918786      -1.10908159      -0.65897734       0.33547775       0.63331890
O      -65.79161546      14.23704922      -1.46001499      -0.93013813       0.56831759      -0.34877264       2.13200516      -0.43760588      -1.07384728
H      -62.60545681      12.77021927      -0.50417266      -0.02493746      -0.29551360      -0.02394393      -0.78606758       1.38669491       3.26686544
H      -61.56792456      13.10258434       0.88199620       0.20888406      -0.28035869       0.16843665      -1.33358976      -0.53381064      -0.38364634
H      -63.34190160      17.55278052       3.87601175      -0.17164186      -0.22770424      -0.25754942      -1.22690144       1.79219993       0.80214131