1296
Lattice="-61.28336833249184 -23.389353819002135 26.99982781477507 0.0 16.764909923243824 3.9823138618945335 0.0 0.0 -20.83450537880231" Properties=species:S:1:pos:R:3:momenta:R:3:forces:R:3 energy=-1487780.3593794054 free_energy=-1487780.3593794054 stress="0.004644845276352365 0.0017527446252342232 0.0012096794806608357 0.0017527446252342232 0.005481920450114172 -0.000520113564323042 0.0012096794806608357 -0.000520113564323042 0.002074857531973071" pbc="T T T"
C      -42.20082008     -22.50081546      10.24800189       0.53363453       2.06119141       0.95037548       0.71943677      -1.06478696      -0.04470597
C      -41.06604929     -22.48165458       9.43430488      -0.37862742      -0.27586574      -0.54400833       0.61094546       1.15924631      -0.25795601
C      -43.05029377     -23.64345284      10.14096359      -0.19491741       0.17949778      -1.62635573       1.11554854      -0.80305656      -1.33644734
N      -42.47477141     -21.58300843      11.16233010       0.33812768       0.79293474      -0.10847112       1.04608234       0.91209645      -1.09819166
C      -40.61208809      -6.74764405      12.55868928      -0.34320491       0.19074085      -0.98349883      -0.77531312       3.38604757       2.04406066
N      -40.12924323     -21.25614686       9.46940560      -0.15422962      -0.59116559      -1.22213677      -1.63664624      -1.43732470       1.52464307
C      -41.38832484      -7.85560215      12.55340951      -0.07566119      -0.80008932       0.90209260      -2.12225193      -3.10711984      -0.91200292
N      -39.52908904      -6.50497507      11.87378206       0.06854305      -0.31540067       0.67661845       1.40752630      -0.01952836      -1.00223342
C      -42.62813690     -24.76003695       9.26181601       0.61406982      -0.89073752       0.28828201      -1.27725695      -0.09087875       2.08835276
N      -41.01316230      -8.94430581      11.65985355       0.82322480      -0.79033131       0.59936331      -0.03914373       0.57480628       0.31509246
N      -43.31706817     -25.94593475       9.34152456      -0.28538897      -1.64775773      -0.18348684       0.04858877       4.92157840       2.15207720
N      -44.13700085     -23.80323516      11.05936274       0.37292421       0.89420512      -0.44340907       0.72420937      -0.94283865       0.59144641
O      -39.50229918     -21.10208665      10.48581347      -0.02263638       1.92917284       0.25066265       0.38473322      -0.06673674       0.71211262
O      -40.08817928     -20.50823619       8.53454498       0.23198884      -1.09582661       0.55151626      -0.01064464       0.61241182      -1.51794331
O      -39.78831075      -9.07687790      -9.32753664       0.31892848      -0.67402932      -0.51149817      -1.36374509      -0.28134904      -0.65952257
O      -41.91294679      -9.58561529      11.11148168      -1.00697028      -1.94605564      -0.19349235       1.65823527       0.18858007       0.20781425
O      -44.96751109     -24.63133863      10.74855895      -0.12983098      -0.55008085       0.50020822      -1.27597772      -0.39113165      -0.13960347
O      -44.16473205     -23.27917415      12.17734543      -1.12430127      -0.43690278       0.73181216       0.12731390       0.56187061      -0.78499638
H      -43.15214474     -21.86610235      11.80558710       0.29571218      -0.04797708      -0.17089126      -1.07362777       0.05796650       1.43852130
H      -41.76327300     -20.93574819      11.41105251       0.02361378      -0.00132098      -0.00714486       0.22626886       0.38561224       0.23144434
H      -39.27435101      -7.23524618      11.25628414      -0.10287727      -0.21964670      -0.12739714       0.83866321      -0.26322757      -0.53135017
H      -39.08204952      -5.59917799      11.87691371      -0.16395782       0.19934273       0.31072946      -0.18780407      -0.50830189      -0.26065870
H      -44.12932457     -25.88652716       9.94855958      -0.40721159       0.10818530      -0.10328919       0.12261831      -0.43867520      -0.48759774
H      -43.10499841     -26.66347301     -12.05144197       0.19509188      -0.25487401       0.03339520       0.82997663      -3.01733318      -2.38890229
C      -63.63642986     -18.14666565       0.73961812      -1.12535437      -0.38961838       0.60042897      -0.62141354      -0.59490280       1.64290573
C      -64.40087026     -18.30111856       1.94318110       0.16767071       0.32395299      -0.44188098      -1.22507309       0.25635008      -0.16617960
C      -62.98060905     -16.91945681       0.61226434      -0.48237644       0.24384191       0.59943057       1.56579801       0.28974108      -0.60573405
N      -63.48026761     -19.21441222      -0.06039881      -0.46824833       0.07551437      -1.98164294       1.49536809       1.22147620      -2.14354042
C      -64.86800585     -17.11662637       2.68082102       1.27992717       0.53454259       0.97488578       1.16178574      -0.28768244      -0.60623166
N      -65.06072003     -19.54211152       2.24497695       1.86334079      -1.31049305       1.38131830      -2.52668673       0.87447559       1.71891855
C      -63.96141140     -16.02932331       2.56682187       1.09007988      -0.16263861       0.18701825      -0.84646148       1.36873821       1.82701431
N      -66.07396215     -16.95820900       3.31251940      -0.20239884      -0.90940432       0.17711277       0.68561204      -2.29019854       0.85858617
C      -62.87422631     -15.93584993       1.62067971       0.18226519       0.57429843      -0.58939483      -1.91699776      -0.35059905       0.37170151
N      -64.18081568     -14.86379175       3.56795633       0.29092267       0.46899911       1.02491643       2.21989083       0.96819568       0.36820966
N      -61.98861804     -14.96549049       1.56884413       1.36880905       0.10026414       0.29679597       1.13077748       0.16637799      -0.86613414
N      -62.18687351     -16.72380199      -0.59536886       0.23719726       0.00273230      -0.03908582       0.55539667      -0.19328611       1.98111699
O      -65.14079650     -20.53455900       1.53770819       1.22583973       0.01117661      -0.41110032       0.96681515       0.27490063      -0.32620668
O      -65.72224581     -19.49380440       3.31456681       1.15956009      -2.42918111       0.22332530       1.14878556      -0.56632154      -0.82492262
O      -64.60312517     -14.99589887       4.72391883      -1.34510576       0.36209355      -0.23243528      -0.56432539      -1.22359989      -1.32018159
O      -63.70085323     -13.77498042       3.24930326       1.21225353       0.66042084       0.49274399      -0.43919679      -0.89705172      -0.64729127
O      -62.77432348     -17.04969539      -1.58029669       0.25392040       0.91733999       0.88395323      -0.49461260      -0.41755075      -2.75632678
O      -61.03181823     -16.32772699      -0.57132472      -0.15886358       1.08359864      -1.77800775      -0.27139244       0.14804663       0.05951924
H      -64.21350943     -19.87356719      -0.10025783       0.08915710      -0.19333697       0.13169229      -0.57932825      -0.71101836       0.37480849
H      -63.03414977     -19.05216117      -0.98401596       0.23694051      -0.12560700      -0.16704124      -0.59494851      -0.17029563       1.33034735
H      -66.19021576     -16.04747749       3.69379828      -0.21884099      -0.03402046       0.05332340      -0.22993701       0.31663462       0.43405288
H      -66.41402961     -17.76806014       3.92840293      -0.00403900      -0.27017314       0.28681826       0.67082811       1.63107271      -1.74053200
H      -61.30815616     -14.87221127       0.82216240      -0.04647035       0.09815918       0.02867612      -0.51402837      -0.60262907       0.15431319
H      -61.81407498     -14.35903943       2.31989703      -0.07014242      -0.05814038       0.25742952      -0.55651062       0.79292661       0.99960809
C      -57.83611486     -26.78542846     -15.27368613       1.42792596       0.07081523       0.34586714       1.47228770       1.22947419      -1.92718803
C      -57.00408292     -26.16011753     -14.35689381       0.17175022      -0.50392441      -1.03906615       1.70698864       0.04308084       2.90228767
C      -58.13272730     -28.13282370     -15.07916685       0.21282426       0.16902207      -0.16246202      -1.63219099      -3.75905574       3.04101881
N      -58.10715530     -26.24444152     -16.47366825       1.21380867       0.22566116       1.29879975      -2.27921807      -1.86077859      -0.01572132
C      -56.74759802     -10.02646730      -9.04139257       0.56907213       0.30318118       0.55877580       0.62650345       2.93708064       1.40728577
N      -56.38690822     -24.86290009     -14.65555391       0.75959376      -0.54292333      -0.92712221      -1.74153136      -1.26326030       0.41520511
C      -57.20075845     -11.29161759      -8.74522640       1.52218092      -0.40399645      -0.67860463      -0.70183767      -2.99289310      -1.14701867
N      -56.12364426      -9.30426796      -8.03450895      -0.52932930      -0.78406707       0.56899008      -0.82188089      -0.09485372      -3.51737228
C      -57.78165294     -28.86096004     -13.78460371       0.61266464      -0.52163033       0.09161305       0.00592944       0.97438770      -0.92083648
N      -56.92187023     -12.01651743      -7.45017500      -0.55675753      -0.23204911       1.00742917       0.29014890       0.56077529       0.29920074
N      -57.96120437     -30.16821665     -13.58782829       0.08987100      -0.69616175       0.37555978      -2.40930283      -2.19638369       0.25957060
N      -59.10893455     -28.86144518     -15.89207492      -0.31255068      -0.79426108       2.02579407       0.62526034       1.79186736      -1.64903789
O      -55.87757698     -24.21748380     -13.75571674      -0.23161075      -0.33777970      -0.10434995       0.70060210       0.13693988       0.42102015
O      -56.49776725     -24.41354848     -15.77357336       0.42032903      -0.97958072       2.04237531       0.31670417       0.45426928      -0.72347094
O      -56.56067539     -13.20783952     -28.30711876      -0.36986271       0.11611249      -1.03494418      -0.40963692       1.96817248       0.31043503
O      -57.06769966     -11.38684466      -6.38724129       0.08408624       1.84122498      -0.96048739       0.29466042      -0.74603295      -1.49004101
O      -59.92436424     -28.17597154     -16.60954203       0.12200950      -0.64781753      -0.35716091       1.54224642      -2.13364928       1.75555666
O      -59.00008869     -30.09069815     -15.96301616       1.50602387       0.25716726      -0.15982461      -0.93353135       1.11612037      -0.11586367
H      -58.91133395     -26.77162389     -16.85441834       0.18053917       0.19357702      -0.18165026       0.63696951       0.88044950      -0.50514890
H      -57.81356473     -25.37634329     -16.85535123      -0.10321699      -0.15188782      -0.50470013       0.28249580       0.32945469       0.57552833
H      -56.00985237      -9.70111086      -7.13478543       0.07278719       0.04488337       0.10866029       0.08275360      -0.06438879       0.56383931
H      -55.79658615      -8.41175950      -8.43798863       0.39365254      -0.05587512       0.02697061       0.06808652      -0.40908358       1.33629760
H      -58.57059731     -30.77733102     -14.23950317      -0.30718013      -0.09707569       0.02687529       1.60735997       2.00716321       1.06714000
H      -57.94879507     -30.56762025     -33.44610634       0.12781553       0.20743699      -0.30542610       0.44849315       0.99399155      -1.96769174
C      -43.47431414     -18.92451794      15.15284153       0.02582129       0.38378629       0.91292533       1.51631804      -0.19692748       0.07548857
C      -42.99291247     -19.89002060      16.17407578      -0.84243485      -1.38856653       0.14844105       0.38265147       0.29024760       0.30641477
C      -42.58780828     -17.86523235      14.71031995       0.32391780      -1.24288019       0.16651557       1.72009495      -0.76261491       1.97859269
N      -44.60300848     -19.03167528      14.49207278      -1.55301076       0.97254435      -0.99432648      -2.27481017       0.21506509      -0.75989670
C      -41.72905763     -19.63448556      16.95663513      -1.83491134      -0.15127784       1.11362291       0.10216632      -2.40799884      -0.55447705
N      -43.77389752     -21.15521220      16.35600625      -0.18863184       0.66890223      -1.17136746       3.33467329       1.00405028       1.70693830
C      -40.99953856     -18.51560977      16.62619653      -1.50050490      -0.38241004      -0.02069095       0.09073132       1.87157408      -1.53412595
N      -41.15977118     -20.68821900      17.70274734       1.20525518       0.58117491      -0.56362550      -4.21357297      -1.32110599       0.10472087
C      -41.41288986     -17.70198384      15.45800620      -0.16891215      -0.12841416      -0.49834628       2.55137817       2.02763514       0.94483142
N      -39.62109251     -18.24310839      17.26002331       0.65794019      -0.25749168       0.40609535      -4.77900991      -3.63683256      -0.41774860
N      -40.60880396     -16.61131429      15.18157781       0.75445898      -0.16309884      -0.45620969      -2.13419465       0.02296524      -1.69358512
N      -42.90766555     -16.80569015      13.74245296      -2.14488234       0.03098552      -0.80461310      -0.02895631      -1.37303986      -1.17510516
O      -44.70108356     -21.36546745      15.65565450      -0.70269343       0.97511753       1.01000388      -2.16929099      -0.36629181      -1.50723403
O      -43.41956583     -22.01612272      17.22258633       0.54053658      -0.39659284      -1.42276817      -0.35140447       1.02863641      -0.87355214
O      -38.87051120     -17.53925837      16.68732077       0.96576572       1.48163256      -0.55063965       2.67763047       1.46437166       0.05647116
O      -39.41206879     -18.94719054      18.23300587       2.48315220      -0.20964646      -2.10380589       1.18039382       1.16780837       0.34682027
O      -42.10774867     -16.40586784      12.84159537      -0.11362677       0.38208271      -0.58721475      -1.37545557      -0.65315835       2.38450688
O      -44.07577858     -16.48944412      13.81002106       0.92821678      -0.92717296      -2.48270963      -0.16881661       1.05960068      -0.61716661
H      -44.94734586     -18.26081382      13.89632501       0.15069347       0.34096527       0.38238860       0.76730809      -0.65579253       0.69229897
H      -45.29250330     -19.72501292      14.73810335      -0.13919345       0.12368357       0.04240152       0.38245051      -0.12297860       0.06723928
H      -40.71429895     -20.52703958      18.59947057       0.19021557       0.11161775      -0.08753491       0.05394059       0.61805325      -0.79900971
H      -41.96226462     -21.44002035      17.80197523       0.06476192      -0.37094940       0.45895521       2.44465882       1.78772961      -0.18706081
H      -40.81147193     -16.03105563      14.35296630      -0.11830044      -0.46144238       0.00363977       0.13302490      -0.94303241       0.95683363
H      -39.71499239     -16.50964764      15.58622606      -0.21147464       0.29937998       0.17272207       0.49251438      -0.13210961       0.43883486
C      -19.48336060      -6.26504826      13.18548023      -0.23310222      -0.00185179       0.72210144      -1.07549544      -0.47197953      -1.88816635
C      -19.25627798      -7.65767043      13.07593771      -0.66902677      -0.65731100      -0.75330665      -0.22868590       1.40632393      -0.99984582
C      -19.45367219      -5.61367058      14.39785053       0.12186818       0.48189619      -0.21683560       0.49175495       0.33817342      -0.27821290
N      -19.82267092      -5.57554381      12.13150908       0.15587081       0.23046809      -0.77235439       0.34791900       0.28236935      -1.90896614
C      -19.04193123       8.45660485      18.23888803       1.72745106       0.97260369      -1.20341377       0.46317794      -0.94234387       0.44614748
N      -19.36051324      -8.31975917      11.82519036       0.60640951       1.11502150       0.09211556       0.23729664      -0.52235105      -0.43681778
C      -19.23092590       9.07342409      19.47494657       0.48505398       0.68252686      -0.35897565       0.90286425      -1.09771118       1.13153847
N      -18.63397143       7.23861131      18.18324985       0.34020291      -0.43009239       0.66016161       0.85279386      -2.15881072      -0.72675538
C      -19.38548870      -6.30502907      15.59396514      -0.56824006      -0.38040146      -0.56179316      -1.34412195      -1.64653213       0.57617194
N      -19.13703727       8.22216442      20.64066711       1.53492999      -0.08666333      -1.05039738      -0.53383250       1.62608492       0.86056172
N      -19.79492808      -5.77916740      16.72781551      -0.28850584       0.27007410      -0.18843753       0.85323984       1.11262606       0.59709936
N      -19.73472111      -4.23713951      14.38723027       0.91592843      -0.42587812      -0.44583698      -1.73222998      -2.64112011      -0.72379084
O      -18.97975845      -9.47784590      11.61321012       0.84837400       0.20439740      -0.29985407       0.23595782       0.28799478       0.95875036
O      -19.86338046      -7.69363540      10.90219196      -0.99069624       0.24514331       0.77673611      -0.41370268       0.09889986      -0.95559912
O      -19.14151180       7.01178415      -0.27539722      -0.10492499      -0.12837512       0.96151345       0.05479190      -0.38431108       0.28817849
O      -19.10946977       8.77265375      21.76227887       1.71466653       0.70734292      -0.18221573       0.29733056      -0.38480846      -0.64504165
O      -20.47953132      -3.80186276      13.51337046       1.16985580      -0.82202932       0.06469549       0.24093782       2.27167697       1.33496560
O      -19.34929238      -3.65714762      15.35909329      -0.07568325      -0.44068777      -0.63511990       0.90950052       2.50019954       1.12160425
H      -20.29904537      -4.69676242      12.19800872       0.04460556      -0.40510697       0.03516848       0.27371950       0.06384519       0.04277621
H      -19.77335721      -6.02873602      11.25061291       0.09063441       0.25324805      -0.19211146      -0.15239582      -0.44387151      -0.47996009
H      -18.33944143       6.76069076      18.98252795       0.10796546       0.11826214       0.06563671      -0.00499983      -0.76339201       1.14441525
H      -18.55448388       6.75895913      17.32522187       0.05383747      -0.37930620      -0.19573400      -0.05293075      -0.23061395      -0.90244068
H      -19.78749150      -4.78644327      16.60426718      -0.11937487       0.02212531      -0.28539605      -0.24254125       0.43602332       1.38910638
H      -19.45764633      -6.23672038      -3.26676758       0.11970276      -0.12593656      -0.07960648      -0.40552197       0.08596930      -0.24978105
C        8.97447307       7.94527611     -14.82795792       1.10257641      -0.86071274      -0.11444960      -2.00697426      -1.51425097      -0.01714911
C        7.59993378       7.46496379     -14.72777371      -1.22401687      -1.16102104       1.20447318      -1.32193135       2.62990649       5.27102139
C        9.60658578       8.65843891     -13.78179012      -1.65696296      -0.07580863      -0.53885465      -0.15839560      -0.33669458      -0.73181866
N        9.53607127       7.53300847     -15.91690288       0.28403700       0.43730365       1.37647458       4.15484930       0.68935506      -2.66013954
C        6.81436615       7.77255579     -13.45174902       0.68333435       1.53795822      -1.89850882       3.77147273       0.29667841      -0.03296020
N        6.86071073       6.82094909     -15.63939062      -0.50303523       0.59749729       0.07346323       1.08451880      -0.05709877      -2.01611716
C        7.53384999       8.57354360     -12.48944899       0.93066306      -1.69128056       0.96869782      -2.59188194      -0.83386331      -1.33869423
N        5.67966261       7.23579367     -13.11421993      -0.53977381       0.86386607      -0.75288238       1.38713229       1.23933434      -1.87202268
C        8.82945315       9.04538093     -12.64388885      -1.35684364      -0.26157431       0.25076650      -1.05573821      -1.26576020      -2.25375253
N        6.74080881       9.04922887     -11.36474526      -0.74001673      -0.32739144       0.15618787      -1.91028976      -1.20864079       2.41547301
N        9.23285965       9.80956109     -11.73469135       0.34098484       0.39560646      -0.80270897       2.08233277       2.07485827       2.93176076
N       10.98307314       8.98393991     -13.94957532      -0.63152277      -0.42091866       0.99949949      -0.47684953       0.11453813       0.51280530
O        7.43241953       6.54153986     -16.71803412      -1.26117000      -2.23263280       1.13891632      -1.86421673      -0.82167055      -0.31809622
O        5.67724928       6.57507812     -15.40503789      -0.10284863      -2.42678080      -0.09673882      -0.12401737      -0.77451157      -1.62794006
O        6.71710178      10.22651696     -10.98553024      -1.46551554      -1.12584293      -0.13155697       0.35441467      -1.70733641      -1.47154254
O        6.06854358       8.16048948     -10.73303053      -0.94080819       0.81734835      -0.99361018       1.60546784       2.13302712      -1.41369257
O       11.50985883       9.76416421     -13.16927088       0.33088758      -1.36580246       0.23681734      -0.00177399       0.49868905       0.51914305
O       11.62366116       8.47314738     -14.86010550      -0.20633471      -1.55282397       0.51423431       0.43456606       0.02089015      -0.27735960
H       10.54440635       7.77798699     -16.13793969       0.13638792      -0.24442220      -0.51214368      -2.07357370      -0.36616508       0.95223241
H        8.98707998       7.11400899     -16.66415680       0.17223681       0.03729613       0.09543418      -0.24122775      -0.00354863       0.65278232
H        5.55367666       7.12195017     -12.18645295       0.02361792      -0.09509763       0.07724522      -1.03236317      -0.25694292       3.35042917
H        5.31281601       6.69954635     -13.82718426       0.09384987       0.41624226       0.06850273      -1.55486019      -1.50801308      -1.28292258
H       10.11591083      10.21146179     -11.76040176       0.32094928      -0.16113125       0.16457794       1.89022406       0.57343868      -0.24077172
H        8.69450130      10.04464273     -10.94030859      -0.34329347      -0.07012852      -0.21767623      -0.47428308       0.41236882       0.35796966
C      -39.15178739      22.69105370      25.10343886       0.12703357       0.86656088      -0.55614198      -1.47629744       0.46305317      -0.34795500
C      -40.02395469      23.44898006      25.93393014      -0.02164857       1.36306299       1.24014634      -1.69648877      -0.30158739      -0.28432406
C      -37.78756420      22.70083947      25.43360738       0.39790036       0.17082818       0.53976319      -1.36274779      -1.79589500      -2.37109296
N      -39.73095465      22.13666037      24.03372507       1.17071576       1.91431999       0.42491232      -0.10185795      -0.15880843       0.71772732
C      -39.58983167      24.13806645      27.02648078       1.00980332       1.19869647       0.08865402       2.65853342       1.29688152       3.14733245
N      -41.47759469      23.39843392      25.73829346      -0.66621035       0.74553332      -0.66142721       2.04993105      -1.96527760      -1.34537333
C      -38.15974786      24.12151791      27.39567706      -1.33253774       1.54782079      -0.32673711      -1.62457628      -0.81156051      -0.35880078
N      -40.40773702      24.78826963      27.84609729      -0.71612350      -0.13856585       1.11193972      -1.14261446      -1.47406777      -2.04718709
C      -37.31907751      23.29924958      26.60935520       0.18361467      -0.66427981       0.67532211       1.96797427       0.26363679      -0.31288507
N      -37.72127957      24.59692595      28.67980023       1.17546089       0.55638009      -0.76561043       0.32951165      -0.71674146      -3.05724034
N      -36.04901118      23.11320245      26.87692172      -0.87047387       0.22768281      -0.70973575       3.19140147      -1.06139149      -0.46964410
N      -36.98236026      21.86244498      24.49287633       0.14233713       1.20218399       0.26732198       0.34025356       2.10199901       1.73012495
O      -42.22517457      24.19820841      26.19360450      -1.21347078       0.20613130      -1.06528091      -1.34913529       1.91754551       1.06144910
O      -41.90914398      22.45138165      25.08831279       0.38405895       0.39502376       0.88260832      -1.00607388      -0.65399049      -0.31702444
O      -38.55141399      25.07020240       8.58880802       0.29715725      -1.34659270      -0.79771124       0.58316310       0.64967301       1.72970168
O      -36.50376583      24.55041303      28.87444621      -0.88645538       0.71504951       0.88442829      -0.56671679       0.60057983       1.49738490
O      -37.48925582      21.07710924      23.75182934       1.15450825       0.88238477      -1.01073588      -1.84325103      -1.96619970      -1.09043011
O      -35.80165026      22.04152585      24.41697693      -0.68412270      -1.42932402       0.20152954       2.36979244       0.85803073       0.84876639
H      -39.14916074      21.57772934      23.48221641       0.37849547       0.27599137      -0.08345296       0.65910311      -0.73596288      -0.90783310
H      -40.71922904      21.88292721      24.13625360      -0.10421495      -0.25641213       0.15165316       0.63142113       0.54163588      -0.26619719
H      -40.05589752      25.13941698      28.69543940       0.03676706       0.31585793      -0.06725433       0.17591177       0.24430994       0.87858061
H      -41.34011915      24.47319822      27.61593864       0.40699400       0.27986436      -0.10357271      -0.44795403       1.43553469       1.01148171
H      -35.37143978      22.59358135      26.21651673       0.14390889      -0.05216650       0.21682286      -2.20037736       1.19663779       1.31755950
H      -35.63591144      23.55935850       6.86371737      -0.07612566      -0.36302126      -0.00120937      -0.49987023      -0.19023430      -0.50484584
C      -85.89720294     -21.93753749      23.97430961       0.16144030       0.46467068       0.55206410       2.44126403       1.12035835      -1.84976422
C      -85.82928545     -20.99975500      25.02246619      -0.96430471       0.40876993      -0.63815873      -0.26084171      -0.66939657       0.18097479
C      -85.05780436     -21.62878873      22.82529016      -0.64586751      -0.77093031      -0.48054361      -2.14277267      -1.80492126       0.84997918
N      -86.58912950     -23.11482501      23.98925015       0.81597461      -1.30461204       0.25869114       0.10847421       0.89127656       4.68114704
C      -85.08800279     -19.74328086      24.91114138      -0.90776166       0.09926529      -1.20970069      -2.19990550       0.84156799      -0.41006315
N      -86.49931663     -21.37229759      26.26996752       0.00924328       0.66820096       0.37285008       0.27937413       2.97796706      -0.13920641
C      -84.37475322     -19.52264564      23.72026860       0.23582123      -0.65550168      -0.69632558       2.15754108       0.74643820       1.60838703
N      -85.38060314     -18.77591888      25.78705914       1.54414003      -0.35452204       0.10384685       0.68799532      -0.29653445       0.61929345
C      -84.15332260     -20.63111189      22.77545835      -1.52596296       0.20637280      -0.35822631       1.61138799       3.96734045      -0.04337540
N      -83.41097501     -18.24021887      23.85689999      -0.60127399       0.22080618      -1.40308302      -1.05508135      -0.65067591      -0.32898629
N      -83.16151712     -20.45159374      21.89096609      -0.23588663      -1.48717176      -0.07437379       0.36356158       1.59407444       1.05003686
N      -85.19375361     -22.36810605      21.60611521       1.06043346       0.97198165       0.20883368      -0.17582244      -0.26307338      -0.23100116
O      -86.97268073     -20.43569917      26.98085096       1.54089445      -0.47717691      -0.23989281       0.47841678      -2.13089543      -0.80558495
O      -86.52800062     -22.53994873      26.58079675      -0.20166530      -0.86652882       0.75886224      -0.54482776      -0.43324230       0.85325152
O      -82.48139084     -18.17995308      23.06498668      -0.47774996       0.81658261      -0.53273211       0.14208793      -0.15316651      -0.23288241
O      -83.59716315     -17.31491849      24.65933742      -0.84152926       0.11063324       0.53339654      -0.24985677      -1.53704077      -0.76674044
O      -84.88460954     -21.77620053      20.58567083      -0.42065341      -0.32724232      -0.35203603      -0.09479484      -0.46583679      -0.25200769
O      -85.62047235     -23.51450669      21.61726456       0.16104260       1.13750165       0.02503303       0.14302526      -0.31292101      -0.07112141
H      -86.08535218     -23.82417812      23.56037423       0.05465220      -0.10604007      -0.40701645       0.65295849      -1.26268305      -1.95344749
H      -86.42887348     -23.32667108      25.02487795      -0.30244226       0.39686546      -0.07813326      -1.56030406      -0.34977919      -1.54102119
H      -84.88717004     -17.86017730      25.84138890       0.34940734       0.30258892      -0.21109680      -0.59048459      -1.36274586      -0.42929629