1296
Lattice="-43.77509481973669 5.208770571115203 24.243819813585475 0.0 16.38726645016016 3.4099479638505077 0.0 0.0 -26.728730402726843" Properties=species:S:1:pos:R:3:momenta:R:3:forces:R:3 energy=-1487788.5170486502 free_energy=-1487788.5170486502 stress="0.005971067141268104 -0.0005395264264814221 -0.001118422911099393 -0.0005395264264814221 0.005306931529601784 0.0008053763748347361 -0.001118422911099393 0.0008053763748347361 0.003796965339406691" pbc="T T T"
C      -28.33292875       8.53094683      12.80967681      -0.68646940      -0.42424534       0.20934083       1.45172183       0.57009394       1.49481933
C      -28.42767878       9.29173517      14.01265626      -1.52566885      -0.85119636      -1.66001280      -0.02202311       0.72229717       0.86546368
C      -27.25736746       7.58990992      12.77906015      -0.09626212       0.26118026      -0.64585955       1.08165117       1.13417787       0.99461524
N      -29.15844492       8.73365333      11.82576763       1.04703884       0.55778756       0.20217059      -2.48830646       1.26235995      -1.19380835
C      -27.59975655      25.44869500      18.60880918       0.32926958      -0.83194891      -0.35370408      -1.78191715       0.54944788      -2.27700441
N      -29.50673430      10.31266787      14.19587950       0.40849218      -0.89859457      -0.01953182       0.21647590      -1.77504253       1.17345593
C      -26.36339679      24.78592230      18.38524725      -0.09640681       0.41418114       0.04719847      -0.11528963      -1.76078498      -0.53175581
N      -28.07923020      25.76908401      19.84158912      -0.53349165       0.65069518      -0.98791556       0.68553113      -0.80673895      -0.83951981
C      -26.18288796       7.65133135      13.74123923       0.25735299       0.25737898      -0.24905546       0.77746835      -3.39711372       0.03427018
N      -25.63166738      24.28064480      19.52932349      -2.26594167      -0.01408474      -1.01283213       1.33302983       0.66477539      -1.15872995
N      -25.10765990       6.73115368      13.62119012       0.01801738      -1.01382332      -0.88419409      -2.31279385       0.95088190      -2.74164014
N      -27.13052555       6.72878007      11.64498029      -0.42819112       1.43144908      -0.70426820       0.76157228       0.22447803      -3.39350326
O      -29.23241325      11.20767534      14.98454051      -1.01848233      -0.98917562       0.26271140      -0.36257193       0.37040259      -0.82569573
O      -30.65388448      10.12165741      13.75426833      -0.22964644      -1.00855357       0.63401289       1.22670142       0.34672302      -0.39155985
O      -24.62927833      23.58641562      -7.24724140      -1.49312561      -1.10432077      -0.19424216       0.25463054      -0.51717535      -1.31051616
O      -25.97581341      24.67757531      20.59819124       0.60406069      -0.17174025       0.07786442      -1.05060575       0.41822284       2.76485115
O      -26.83947278       5.55902449      11.79288570       0.72268909       0.18469872       0.06188653      -0.07737841      -0.33190187       0.74040458
O      -27.21872062       7.19693222      10.47053092      -0.72958341       0.44521497       0.59340699      -0.47126399       0.00131764       2.39003507
H      -29.02468573       8.41565007      10.87386026       0.02978693       0.06584280       0.20944853       0.42799433      -0.18972969       0.47120742
H      -29.90454022       9.46283725      11.95037073      -0.01227487       0.19909275      -0.01927865       1.12268619      -1.27996376      -0.24760220
H      -27.55394307      25.08014406      20.38539472       0.08974406       0.18051155      -0.36410866      -1.34903539       1.07694095       1.41013042
H      -29.10337217      25.83186167      19.92856582       0.20369005      -0.14945139       0.07094405       1.20829260      -0.04774831      -0.06406812
H      -25.03462920       6.10550651      12.78307853      -0.35718708      -0.04211082      -0.25939583      -0.58477109       1.29794904       1.38324884
H      -24.46366051       6.49354935     -12.39914567       0.24625008       0.27131499       0.12047865       0.25750692       0.46937340       0.84162929
C      -44.86775035      11.48790951      -0.38183027      -0.05272550       0.67198444      -1.71805851      -2.48614707      -2.94062078      -0.80395518
C      -46.19015613      11.04834928      -0.83619273      -0.15008355      -1.38672460       0.20343291      -1.69882988       0.85999971      -1.40745560
C      -44.58985431      12.76731307      -0.17009713      -2.18528302       0.03242513       1.96250389       0.58118412       4.74875323       0.26227480
N      -44.06049813      10.49628038      -0.13244835      -1.92008486      -0.31222622       0.43150938      -1.00509523      -2.68770599      -0.45092786
C      -47.24303897      12.01805100      -0.94914668       0.84281353       0.34819986      -0.92739480       0.38744749       0.19312160       1.18051937
N      -46.57339670       9.60131857      -1.20449753       0.69414620      -0.51581819      -0.12047947      -1.15517743       2.91335069       1.11807527
C      -46.96279608      13.39238047      -0.55838428      -0.02672487       0.13087019       0.51864345      -0.11508331       0.37009213       0.14122671
N      -48.49150155      11.71357542      -1.24729345      -0.98735844      -0.17987091       1.73023707      -1.40286103      -0.69618640      -0.50608761
C      -45.62102259      13.81959050      -0.30549161      -0.85796986      -0.49626601      -0.08992386       1.80529814      -1.80143752      -0.14415354
N      -48.13620068      14.31895618      -0.36064811      -1.18085518       1.54710541       0.26241777       2.66042701      -1.83417693      -0.16811709
N      -45.19495047      15.09717408      -0.26753162      -1.60427822       0.79545317      -0.02940018      -0.72373332       0.88250435      -0.45079883
N      -43.08551113      13.16125954       0.21451984       0.81136950      -0.06589992      -0.06886302      -6.50943206       1.61747672       1.24489532
O      -45.93774741       8.73621467      -0.68473673      -1.39853834       0.98773103       1.24856620       1.41190845      -1.66665411       0.16513632
O      -47.61042875       9.36378595      -1.83057516       0.49655307       1.43415892      -1.53157039       0.83942233       0.28040591      -0.23457703
O      -49.26609125      13.87989031      -0.48419533       1.39316425      -0.30488639       0.02119511      -0.52240824       1.39544055       0.33291948
O      -47.84905558      15.44324009      -0.01445958       2.05677704       0.27734014       0.74444360      -0.58981039       0.78152216       0.00846234
O      -43.01056650      14.15224249       0.92292678       0.25572388       1.97863583      -0.91495178       1.04265441       0.06828384      -0.41263156
O      -42.22833783      12.45840781      -0.12879242       1.36468836      -0.50041942       0.13626967       3.17344321      -2.11427355      -1.01975990
H      -44.42880076       9.63663816      -0.52701834      -0.00667272       0.01828209      -0.03674913       0.64797069      -0.30110235       0.72329767
H      -43.11158985      10.56498823      -0.15453888       0.26708676       0.09424062      -0.01048578       2.70676741       0.63163575       0.15127191
H      -49.30173766      12.36042994      -1.10091260       0.20994177      -0.13517792      -0.12010010       1.74954335      -0.74041004      -0.20201722
H      -48.66061712      10.75552775      -1.51555370       0.27680061      -0.11261487       0.42816959      -0.08024647       0.16205979      -0.04629357
H      -44.22991348      15.38785173      -0.30464224       0.15061395       0.20387866      -0.37773007      -0.01758986      -0.89441966       0.32955343
H      -45.75535516      15.68155402      -0.84755134       0.22430735      -0.07785562       0.49786597      -0.62308158       0.58414144       0.12169227
C      -45.90313093       7.28701052     -24.77358705      -0.85087614       0.56853101       0.10615648      -1.28788145       2.01070987      -0.76046058
C      -44.72894392       6.61683873     -25.08151698       0.61484383       0.51452461      -0.24903686       1.54403496      -1.36861061       0.54411199
C      -45.73001898       8.69926086     -24.29583256       1.14932109      -0.12127984      -0.15579635      -2.44916434      -1.10832214      -0.04931468
N      -47.11819326       6.79809788     -25.15836047       0.53738821       0.76605198      -0.51152084      -1.49505881       4.27597837       2.50431429
C      -43.41903788      23.54701197     -21.25951489       1.78088959       0.61645271       0.16179697      -2.26774244      -1.26042067      -0.75941393
N      -44.79002016       5.21142276     -25.59587379      -0.84097398       1.29512031      -0.29461896      -0.31204479      -0.07603898       0.50356283
C      -43.37055915      24.79203121     -20.68411647       0.19246139       0.58587138      -0.27108151      -1.55109326      -0.17929825       0.45715598
N      -42.30892139      22.86746902     -21.44688016       1.48112148      -0.42803967      -1.00404325       2.23320495      -0.08206647       0.30040359
C      -44.50119713       9.21951659     -23.90746755      -0.13245427      -0.72942887      -0.77861185       0.60848158      -0.16463065      -1.04654322
N      -42.04390053      25.24020713     -20.39530504       0.90343980      -0.81470860       0.00438269       0.23284553      -1.15535364       0.06651290
N      -44.30901849      10.47669935     -23.55296206      -0.28399133      -1.27099081       1.28214235      -1.07770250       0.51364857       0.06516575
N      -46.96804080       9.50567751     -24.05079411      -0.56123366       0.33965963       0.83651454       0.40875339      -1.15321705       0.35198610
O      -45.82819900       4.52235973     -25.46120496       1.49070962       0.96716440      -0.86342720       0.99001508       1.33413706      -0.17837855
O      -43.79238537       4.72078251     -26.11037409      -0.05635562       0.46301243       0.21753417      -0.27261539       0.45062608       0.22855446
O      -41.39929342      25.51223488     -48.08368179       0.15216049      -0.66437686      -0.06977793       1.41866986       1.71373780      -2.89797524
O      -41.53169466      25.07994228     -19.32900581      -0.95998709       0.18587840       1.53753808      -0.36639011       0.05295918       2.67485025
O      -47.99938770       8.83715572     -23.87360653       0.38848475      -1.69375736      -0.75890843       0.20403766       1.06110350      -0.16521054
O      -46.97543221      10.73938284     -23.96911531      -0.47270022       0.97914511       0.23151405       0.45071829      -1.20534390      -0.22545334
H      -47.99161108       7.39994116     -24.78289950       0.13393946      -0.06896774      -0.03285507       3.01517987      -2.38834671      -1.34098566
H      -47.10348445       5.86565978     -25.43530068       0.48507658       0.00964229      -0.26010321      -0.47673165      -1.49765910      -0.36855891
H      -41.43766897      23.24612399     -21.13829662      -0.51602402       0.03185565      -0.07768689       0.16688430       0.43666060       0.10460611
H      -42.19143395      21.90290212     -21.59452763       0.00139934      -0.06683588       0.07204590      -0.96110663      -1.01082196      -0.61863561
H      -45.07532300      11.12442033     -23.65216467       0.29479379      -0.26224807      -0.15927524       0.22156991       0.06763272       0.35731407
H      -43.44570974      10.73445739     -49.89920519      -0.25900927       0.34194369      -0.06301557       0.91691368       0.57667591       0.48132976
C      -33.50546075      -2.40497548       8.31512772      -0.19489264      -0.15709428      -0.45128732       1.95289360       0.87796595      -2.71987854
C      -32.26535276      -2.87215343       8.94454962      -1.02440262      -0.38509850      -0.31112792      -2.78960709      -0.54906155       2.19938700
C      -33.27618097      -1.54814877       7.11985582       0.37616622      -0.21800634       0.20119537       1.08524647       0.41498485       1.10132124
N      -34.73578111      -2.70236505       8.67970106       0.00562577       0.25892497       0.86008691      -1.36207634      -0.31128774       0.98092578
C      -31.06106551      -2.20026622       8.83879599       0.64092342       0.29987519      -0.40466469       2.58896081      -0.61484278       0.00528340
N      -32.53836992      -3.70304937      10.20656594       0.86243452      -1.66697996       0.99083791      -1.33104772       0.81581525      -1.85681475
C      -30.86898787      -1.40369051       7.68644060      -1.21178336      -1.90090664      -0.20878488      -1.04624492       0.22817861      -0.34440653
N      -29.88213826      -2.41831545       9.60245939       0.68040406       1.94670335      -0.17268997      -2.86552086      -1.45029705       1.27065100
C      -31.95753533      -0.99952426       6.81195209      -0.00849163       1.84802308      -0.96337698      -0.14725106       0.82390976       0.69278850
N      -29.61354042      -0.72656401       7.46120177      -0.35934630       0.06220271       0.25854766      -0.42450918       0.93557337       2.19352324
N      -31.72322308       0.00096728       5.90821015      -1.04201790       0.20851119      -0.15792125      -1.32627453      -0.10426957      -0.57174251
N      -34.43392607      -0.94721279       6.46231974      -0.08562153      -0.56918255       1.39115153       2.23169586       0.42996657      -0.53697709
O      -31.89860177      -3.47240905      11.22689859      -0.53031517      -0.32681150       0.42302699      -0.87216950      -0.86591769      -0.72800292
O      -33.53804202      -4.46098060      10.07416872       1.50956542       0.46675670      -0.26075416       2.63963363       0.73695316       1.46573832
O      -28.97713980      -0.19820572       8.40237669      -0.11568951      -0.72405369       0.33785743      -0.63558107      -0.85272486      -0.43230627
O      -29.30390623      -0.56101212       6.32838460       0.32262906       1.21065527       0.17937515       1.33492096       0.19349808      -1.94714318
O      -35.42731390      -1.62141725       6.41846729      -1.25658770      -0.37536314       0.92252345      -1.41333633       0.16482442      -0.28077626
O      -34.29237945       0.15895232       5.89984589       1.22131552      -0.75119780       2.02144487      -1.00921090      -1.25557465       0.76036863
H      -35.59175806      -2.65615633       8.12523805       0.28768295       0.11122807      -0.02398397       1.19183384       0.67324158      -0.28065748
H      -34.93175230      -3.03073767       9.60752230      -0.15734805       0.16790213       0.15156537       0.43726144      -0.39498669      -0.07081511
H      -29.40105227      -1.56134400       9.50827859       0.39509360       0.14883615      -0.18354358       1.41489403       0.59702424       0.73417134
H      -29.94457545      -2.86039479      10.59538313       0.03929751      -0.20166973       0.15649833      -0.28575666       1.21189908      -2.66272371
H      -32.55135993       0.53882193       5.51248368      -0.27497645       0.01508683      -0.13251580       1.56868809      -1.49819764       0.81508719
H      -30.76062185       0.14870359       5.56859364       0.63638790       0.03132926       0.21007366      -1.15700221      -0.03612330       0.40533827
C      -18.90398843       3.30819044       1.17240853      -0.11158157      -0.35541982      -0.41390446      -1.16277288      -0.80587443      -0.56415992
C      -18.11156944       3.68544099       0.04129914      -0.85302820       0.16610681       0.45745293       0.31328104       0.13737142      -0.17666006
C      -20.33977366       3.35301629       1.00665188      -0.85280182      -0.57509695       0.46907147       2.06204033       1.57042473      -2.65223444
N      -18.44861221       2.78796048       2.30246237       0.42800650      -1.10684464       0.80473392      -2.12494326       0.63450921      -0.48545526
C      -18.71305401      20.43610730       2.14623516       0.52409457      -0.42645218      -0.73049387       2.45452376      -0.08071968       1.10160559
N      -16.66171830       3.69707719       0.22347330      -0.29933864       1.00301621       0.49240868      -0.07086491       0.05266322      -0.17646520
C      -20.05887998      20.79536726       2.08559262       0.66219202      -0.12437471      -0.69729469       0.40536600      -1.37821871       0.95889618
N      -17.93850943      20.47050886       1.07990131      -0.28766152      -0.49346378       0.49702337       2.05784316       0.83412437      -1.37429878
C      -20.85919902       3.94595199      -0.22578170       0.45700109      -0.39510219       1.67215095      -0.37537411       0.98845596       0.47837360
N      -20.61820283      21.27127546       0.89092743       0.92052775      -0.09118285       0.50418321      -0.14681781       1.34102446       0.65744263
N      -22.11614281       4.16965054      -0.40268245      -0.13050590       0.59617018       0.03621758      -2.09746558      -0.44756415       0.71277630
N      -21.20784149       2.63390109       1.81965725       0.68038044      -0.48877996      -1.11977241      -2.14461051       0.98843777      -1.48666411
O      -16.15605103       3.56386789       1.30650617       0.12423556      -0.75717483      -2.14116180      -0.92920604      -0.18222386       3.21686447
O      -15.86335706       3.88260826      -0.66949586      -1.42200757       1.06773961      -0.49358650      -0.08821890       0.48584054      -3.40721854
O      -21.79560686      21.66692341     -25.88991699       1.00342067      -0.28069414      -0.93052744       0.42290045      -0.59793479      -0.41702894
O      -19.84966510      21.49474547      -0.03608586       0.61438914      -0.82759054      -0.01295728      -0.56026036       0.00500206      -1.14474245
O      -20.85638615       1.63612810       2.35253960      -0.04060528       0.41948413      -0.97946798       1.32449007      -2.26702212       2.05270222
O      -22.39374629       2.98316640       1.82657230       0.90790466       0.24701547      -1.92932281      -0.36051736       0.31415724       0.53060618
H      -19.11159558       2.65087094       3.03478701      -0.10930343       0.10121128       0.18783375      -0.14170135      -0.24052187       0.14709208
H      -17.52349309       2.80537634       2.54016736       0.21268394      -0.01910797       0.12482368       2.61580110       0.18944298       0.25341622
H      -18.30582772      21.06152339       0.29168311       0.09296085       0.20815852      -0.03003781       0.30807907      -1.25215550       0.91146993
H      -16.88453810      20.38152529       1.13761435      -0.05210675       0.16790774      -0.28788863      -1.84251293       0.00732581       0.67648223
H      -22.68792681       3.87498064       0.40013615       0.03254178      -0.05430502      -0.02109319      -0.27183312       0.31667415      -0.72486531
H      -22.42151201       4.60724982     -28.03583007       0.12271700      -0.07941010      -0.03879938       0.19499336      -0.43286698       1.27854885
C      -14.73636576      13.11913260       1.33239151       0.30778158      -0.90830902       0.84578048      -0.18010044       0.53001032      -1.85141550
C      -14.80369828      12.12292755       0.28890170       0.77740039      -0.11697442      -1.00176519      -0.69776097      -0.38884775       2.91609703
C      -13.85276140      14.23453798       1.09886020      -0.77333560       0.77486941       0.51479668      -0.72857789      -0.58891317       3.01391244
N      -15.53736868      13.08628362       2.38196790       0.65015758       0.84443013       2.65419260       0.81647363       0.31257325       0.87685345
C      -14.12378058      12.22039834      -0.91142861      -0.25506348      -0.22944146      -0.33027585       0.10858470       1.08077954      -1.52234708
N      -15.60771416      10.93540115       0.57781308       1.57895593       1.07188758       1.09687295      -0.36719109       0.39255116      -1.62908158
C      -13.44828981      13.45602098      -1.13854051       0.86365344       0.28056324      -0.17753274      -0.17090719      -0.71299150       0.41875936
N      -14.18520766      11.24972406      -1.83755554      -0.33215314      -1.13714818      -0.08808149       1.26148399       2.27933598      -1.90660755
C      -13.12443556      14.36704445      -0.07489743       0.86210340      -0.90501473      -1.00434312      -1.86510793      -2.48510471      -1.86417388
N      -13.06458188      13.79778231      -2.48662521       0.29706648      -0.78432143       0.51471245       0.27450621      -0.69254007       2.67743128
N      -12.33095671      15.33426275      -0.32518600       0.81284137       0.78638016       0.15005468       0.02797403       4.02715407       4.89919048
N      -13.56306476      15.06189169       2.30217091      -2.28710875       0.36432764       1.42941445      -0.97669361      -2.32939607      -2.20871166
O      -15.27634797       9.89228775       0.01605552      -0.98254628      -0.55793410       0.81140557      -0.19014225       0.01901305       0.93515943
O      -16.66417768      11.04588998       1.19853370      -0.42400162       0.31515095      -1.56496509       0.55281658      -0.05882518       0.33428854
O      -12.03538162      14.37603730      -2.65134610      -0.82411783      -0.70103673      -0.92489115       2.50316314       1.42960488      -0.65466967
O      -13.77066734      13.49947417      -3.38919779      -0.52545992       0.56197257       1.68440709      -2.39354234      -1.15460938      -2.27328955
O      -12.57791292      15.70889430       2.34665799      -0.16559664       1.23959466      -0.10943844       3.37699757       2.38832610      -0.86855497
O      -14.27693478      14.99161137       3.26386054      -0.37411500       1.52552151       0.85013009      -1.74248357      -0.06450253       1.99733905
H      -15.34588966      13.67189193       3.18257389       0.16296141      -0.29866879      -0.23503798      -0.04670437       0.32324341      -0.46757128
H      -16.33807754      12.53775344       2.41985505       0.01566268      -0.04343586      -0.07302179      -0.98249726      -1.47826891      -0.32782728
H      -14.15228181      11.38761114      -2.84029452       0.38743178       0.16639285       0.03803947       0.57550779       0.85058615       0.47346952
H      -14.64232985      10.44695909      -1.64405156      -0.18161027       0.02262278      -0.08694916      -1.51674253      -2.84404999       1.24567819
H      -12.26023454      16.02288358       0.47211587       0.04089260       0.28708561       0.41683759       0.43488154      -0.96263912      -1.61775652
H      -11.73898438      15.31552024      -1.05917962      -0.18221102       0.00445406      -0.16009612       1.96115775       0.27525984      -2.67412498
C      -28.44620108      32.84329865      29.98891039       0.58044957       0.26022623      -0.29291635      -0.81075082       1.58919069      -0.56919319
C      -29.66929175      32.85493311      30.77099682      -0.02809271      -0.32517883      -0.53463058       0.76502547       0.20749019       0.49507901
C      -27.34565457      33.74035639      30.31987504       1.74860225       0.19166288      -0.25806379       0.29729496      -0.29876879      -1.20349674
N      -28.48000359      32.22117787      28.85003434      -0.35423543       0.60981730      -1.32348109       2.38106199      -0.07237699      -0.77822847
C      -29.68038696      33.72370223      31.88053468       0.23251976      -0.42989221       0.75365390       0.35623388      -0.41688962       2.68596804
N      -30.83740914      32.12052771      30.29469892      -0.20848988      -1.50956942       0.41658100      -1.61372440       2.09285063       2.37642020
C      -28.44782307      34.26209220      32.41572104      -0.22720337       0.08263084       0.03744382       0.11783498      -0.17050541       0.26352484
N      -30.78033279      33.93825036      32.59632020      -1.47486842       1.37750108       0.32303841      -1.77786188      -1.34506641      -2.19621081
C      -27.28267252      34.35692766      31.58078179       0.08074230       0.26030345       0.10818787      -0.06856984       0.11941115       1.50036240
N      -28.32744896      34.54071173      33.86731911      -0.96184414      -0.75710724       0.77326587      -0.12432839       0.10587603       0.76604892
N      -26.17858190      34.94804200      31.99272741       1.34539440      -0.22872072      -0.66556918       1.35960821       0.20966113       0.07438359
N      -26.29742238      34.08453983      29.30283149       0.60241783      -1.06610338       1.87897305      -0.54077178       0.22571883      -0.90066477
O      -30.78830129      31.78051989      29.16324478      -0.47122377       0.60856384      -0.37340707      -1.07845701      -1.88105082      -2.40787172
O      -31.91932462      31.98219152      30.94847595      -0.36101252      -0.65811411      -0.96794502       2.39550370       0.45564000      -0.00620741
O      -27.20836730      34.79329895       7.59854284      -1.43417571      -0.94039256      -0.29561119      -0.25274443      -0.37316370      -0.83196379
O      -29.28242542      34.48943956      34.66177738      -0.41130729      -2.03483363      -0.48512312       0.19778042      -0.02514303      -1.70004835
O      -25.52043863      35.04661965      29.37641923      -1.45660819       1.03671241       0.74175861      -1.06609373      -1.10844571       1.24842560
O      -26.29896181      33.40422052      28.26822802       2.08321165      -0.69361966      -0.17128395       0.14140958       0.06990266       0.58426008
H      -27.74335327      32.40687965      28.20991832       0.18829439       0.26062901       0.18070726       0.81684621      -0.04483685      -0.06824669
H      -29.30720427      31.86321837      28.47944665       0.17494608      -0.45109684      -0.35810713      -1.34910982      -0.62819280      -0.22021209
H      -30.82832404      34.25684100      33.50605688       0.23471309      -0.25835148       0.24359373       0.91258902       1.09072485       1.92893325
H      -31.59322225      33.39168787      32.35153193       0.05283882       0.34312113      -0.21323673       0.06344850      -0.08504135      -0.43801283
H      -25.36358532      34.94155769      31.34845060       0.08421299      -0.03971221      -0.03189512      -1.09423614       0.26749218       0.91362922
H      -26.08505823      35.24097648       6.25862550       0.03637362       0.28663311      -0.06880756      -0.15933457      -0.45720934      -1.21366142
C      -61.53824281      19.91175128      10.08086413       0.07229383       1.42750171       0.01563146       1.37682477      -1.25780525       0.38096902
C      -60.23616525      20.28702569      10.52336593      -0.36953880       0.17643883      -0.70158319      -0.27899928      -0.04217349       0.20713028
C      -62.46194495      20.90488836       9.78011434       1.16920232      -0.98528019      -0.36950315      -3.40014789       0.93142427      -0.22553968
N      -61.71497312      18.61485581       9.94960181       0.59319187       0.01852421       0.23839913       0.25481697      -1.34279419      -0.01306469
C      -59.83139192      21.64275988      10.49754656       1.92637306       1.88181832      -0.34662663      -2.95574093       1.38549783      -0.02510516
N      -59.29630917      19.28646816      10.90845680       0.03191692       0.38380223      -0.20714013      -0.04792361      -0.18352257      -1.16904261
C      -60.91212624      22.74217322      10.24982771       0.54427608       0.65162290       1.56883940       2.61052266      -4.55070579       0.06492533
N      -58.65473700      22.02915895      10.78167791       0.21178694       0.93935270       0.95799511       2.62370648      -1.38559503       0.72307031
C      -62.20065339      22.34037871       9.80392787      -1.35820563      -0.32400134      -0.89074312       1.77758503       0.94316911       0.11804904
N      -60.40121240      24.01728290      10.16136008      -1.44960410      -0.18121082      -1.06431182      -0.23080192      -1.14089104       0.63902259
N      -63.01440640      23.31803680       9.40380546      -0.38366190      -1.01941941       0.00341130      -2.01186498      -4.14002287       0.73179746
N      -63.85040973      20.47332866       9.51746783       0.00427221      -0.24046880       0.36092089      -0.23152409       1.17054672      -0.69747595
O      -58.12489358      19.60126798      10.83969913      -0.85825825      -0.63008661      -0.16125463       2.51397189       0.89375869       0.32701780
O      -59.56153859      18.13066782      11.19248321      -0.59203074       1.45612224       2.09878263      -1.25394923      -0.37335378       0.21307272
O      -61.19679143      24.85864032       9.84380788       0.47546012       0.11150669       0.30334815      -0.33590935       3.03304405      -0.79327317
O      -59.23190770      24.25666507      10.46554342      -0.45760444       1.17519706      -0.95297186      -0.09340639       2.06838945      -0.55706152
O      -64.15031508      19.28640180       9.38133268      -0.47866000       0.12227029      -1.18658836       0.48418964       0.84813941       0.29579050
O      -64.71913608      21.37212196       9.38240395       0.21649173       1.34936312       1.14009832       1.15485442      -1.26010287       0.36623306
H      -62.62204359      18.27338773       9.65456279      -0.18590512       0.22721583      -0.00919992       0.13971063       0.20243766      -0.02846450
H      -60.90041524      17.96267150      10.17269016       0.10437866       0.06548846      -0.04781455      -1.72872937       1.31403591      -0.14962432
H      -58.51719576      23.04441978      10.82620364       0.57415760      -0.21347074       0.09134843       0.57082429      -0.08594794       0.04046356