1296
Lattice="-60.197006350868946 -33.83383087359507 38.253647479502256 0.0 18.505433637927222 -0.17327320598897644 0.0 0.0 -20.26806600244542" Properties=species:S:1:pos:R:3:momenta:R:3:forces:R:3 energy=-1487777.1262516729 free_energy=-1487777.1262516729 stress="0.0026030003688098068 -0.00041244930284701706 -0.000814842534427562 -0.00041244930284701706 0.0022416377924477458 -0.0012667754363494769 -0.000814842534427562 -0.0012667754363494769 0.004883513435609654" pbc="T T T"
C      -37.11975480     -31.21111937      22.90752828      -0.55423186       0.80854712       0.69562964      -1.02931743      -1.35356430      -2.91821382
C      -36.17703847     -30.88662490      23.96651631      -0.47555069       1.36871005       0.35400655      -2.10726151      -0.59498279      -1.41191385
C      -37.91736111     -32.43088432      22.92925033      -0.09775839       0.73599851       0.19240601       2.74036191       0.82127340       3.84883693
N      -37.32721304     -30.50794841      21.72974182      -0.12020871       0.04071714       0.69407708       0.10564992      -1.60467171       3.07271380
C      -36.06871018     -13.31679861      24.87594998      -1.51448941       1.06432979       0.05932650      -0.57753214       0.76845484      -0.52817827
N      -35.68973584     -29.55539779      23.99966654      -1.02575397       0.06768851      -0.71933047       1.40485342      -0.82157630       0.42630078
C      -36.89983635     -14.49363922      24.80273942       0.21505995       1.15545177      -0.67884064       0.94324563      -0.82510371       3.04517176
N      -35.30978496     -13.04111079      25.90924432       0.75546265      -1.24672696      -1.10505606       0.94185532       2.00990811      -0.50742439
C      -37.99745807     -33.25248674      24.13698103       0.97522968      -0.70924566       0.15105871      -0.78448527       2.67292565      -1.87023117
N      -36.74544255     -15.34507914      25.96318672      -1.04474752      -0.58000433       0.69280037       1.63835528      -2.40053624       1.77453807
N      -39.06774958     -33.95890664      24.42577950      -0.79368435      -1.35699431       0.43026205      -1.02143113      -0.25645053      -0.37446389
N      -38.75656235     -32.68144051      21.89206295      -1.96963321      -0.02974280       0.53825288      -1.03545624      -1.53031849      -3.76010408
O      -35.85367842     -28.84685881      23.00476752      -0.15332141      -1.12819598      -0.29118571       0.17904698       0.23005624       0.95801599
O      -35.01227567     -29.23496429      24.98668977      -0.98459413       0.99636522       0.79952484      -0.53754518       0.60834732      -1.05971428
O      -37.32015887     -16.44603663       5.80524194       0.08349791       1.58084569      -1.05484813      -0.43300486       1.71714382      -1.06280062
O      -35.85799049     -15.10203312      26.82893562       0.83502548      -1.63957692       0.33227586      -1.70337074      -0.78463380      -0.79372674
O      -39.93930704     -32.87658418      22.12355707       0.41874884      -1.03107551      -0.47829959      -0.00450971      -0.05049159      -0.34628966
O      -38.26560616     -32.79937563      20.71031367       0.11702001      -1.71116930      -0.58430542      -1.18011332       0.63381284       2.16438797
H      -38.07090557     -30.79831274      21.09285772      -0.00757527      -0.06188516      -0.07901659       1.09621983       0.66935720       0.28744089
H      -36.72293510     -29.73604035      21.69560581       0.52352079      -0.16595189      -0.17473254       0.15636051       1.39417469      -0.99414354
H      -35.22060461     -13.61364341      26.70364669      -0.31946377       0.41479021       0.23148168      -0.17768280      -1.04447053       0.34158296
H      -34.64008781     -12.28966994      25.85773372      -0.19229414       0.40107650       0.24721381      -0.53290473       0.25099637      -0.55469079
H      -39.89957428     -33.96684364      23.82494757      -0.01952544      -0.08750205      -0.22692418       1.11963356       0.24547295       0.18876344
H      -39.21208134     -34.36214261       5.05900771      -0.11191864      -0.09082131      -0.13362486       0.61885261      -0.39760191       0.31468699
C      -64.94875818     -34.44324842      10.07330582       1.31236744       0.39817575      -0.40923923      -2.32027083      -0.93583070      -1.23130296
C      -66.15245056     -33.78971908       9.46303428       0.63713299      -0.03465505       0.42269846       1.16753944      -2.23670088       1.49431544
C      -63.89237569     -33.56354525      10.37205362      -0.61402486       2.91725450       0.10386243       1.25515190       0.60438868      -1.44582555
N      -65.02217740     -35.81096825      10.25307460      -1.54480048      -1.09787687      -0.22747549       2.67763169       4.01572463       0.92034943
C      -66.17149071     -32.57450719       8.84960526      -0.10776524      -1.56107594       1.31333111      -0.65545588       2.46069233      -0.68514655
N      -67.27221314     -34.62755566       9.18936696       0.36923324       0.12192034       0.14227553      -3.60537071      -0.62799801      -1.90395950
C      -65.05334889     -31.74221119       9.04435672      -1.89631589       1.53038951      -0.22643875       3.00176098       0.86598126       0.89994256
N      -67.19870197     -32.04097097       8.15099703      -1.27954162       1.33068061      -0.09269708      -0.67710434      -1.75708350       0.44480393
C      -63.92054312     -32.13594832       9.89240819       0.78880921       0.09744122       0.00986077      -1.75012239      -1.21868188       1.30571631
N      -65.01033988     -30.39889101       8.49341843       1.27162047       0.10860436       0.44574827      -0.12568153       0.15873697      -0.51091804
N      -63.10382765     -31.25428555      10.48584903       0.75301614      -1.31771313      -0.44737839       0.79187729      -0.12388530      -1.05258742
N      -62.60372103     -34.12014190      10.83803756       0.00570969       0.33069267       0.30810315      -1.49978018      -1.18535402       2.64909364
O      -68.49513860     -34.22265617       9.28582775      -0.93496884      -0.16691879      -0.11800625       3.39400257      -0.21965265       0.38239687
O      -67.05629250     -35.70569490       8.64021874      -0.01797375      -0.31441503      -0.24160095       0.00260864       0.27157016       0.86864808
O      -64.35417101     -29.54498501       9.10544718      -1.08253112       1.32726273      -0.81729039      -0.50223114      -0.05796865      -0.90095294
O      -65.59943956     -30.10828530       7.41666500      -0.38315998      -0.56488124      -0.83599961       0.85638621      -0.64259863       1.95572141
O      -62.62149073     -35.20399986      11.49015433      -0.67559671      -0.26394951       1.49696325      -0.87705757       0.64690042      -1.60329022
O      -61.58050421     -33.48421365      10.82439946       0.09981982       0.45185072       0.71151506       0.51324540       1.15679237      -0.92355222
H      -65.81057210     -36.28327400       9.94827270       0.10902956       0.46707292      -0.18820133      -1.13825157      -1.14857648      -0.59856435
H      -64.19555376     -36.21942626      10.65089087       0.00003844      -0.23047775      -0.05553068      -0.20017472      -0.28556230       0.06709615
H      -67.05228550     -31.08198130       7.78710803      -0.45886568       0.16621467       0.06398319      -0.65051003      -1.17874886      -0.00384673
H      -68.04052135     -32.67049061       8.09252321      -0.07060017      -0.22197389      -0.36408826       1.12991077       1.65269759      -0.03641880
H      -62.23064390     -31.65745147      10.92642216      -0.23356752       0.07414998       0.28127706      -1.48119084       0.99564982      -0.98443652
H      -63.29028328     -30.27485329      10.12189488       0.05045954      -0.21861899      -0.07104293       0.96232886      -1.41514427       1.06019221
C      -57.04963098     -46.76528903      -0.45283578      -0.42069613      -0.24382516       0.15237383      -1.22032460       0.66156977      -0.20815220
C      -57.41086101     -45.50325002       0.17829430       0.34082999      -0.70538270       0.52127428      -0.15826467      -1.20075151      -0.55369983
C      -58.15215428     -47.73272702      -0.54265153      -0.12241797      -2.78058191      -0.38365288       1.43361581       0.06563984       0.57778084
N      -55.86046143     -46.99688054      -1.03013685       1.32211293      -0.47555544      -0.16152644      -1.85755112      -1.42951343       1.35849368
C      -58.80895619     -26.67795618       0.29523188       0.62447486       0.78971747       0.89637403      -0.04693417       1.24777209       0.87259223
N      -56.39255911     -44.55089802       0.45037409       0.25313183       1.02107855       0.51099066       2.32785924      -0.65306099      -0.43085164
C      -59.83877267     -27.64232811       0.29740821      -1.35638377       0.29548235       0.34630398      -0.37717087      -0.71400124      -1.21638036
N      -59.11516613     -25.45195060       0.68694149       0.20099619       0.87155669      -0.06407444      -1.30543217       0.20532157      -0.06292824
C      -59.45121695     -47.46854913       0.05779745       0.93999569      -0.30437715      -0.17728050       0.58927683       1.43541306      -0.11636792
N      -61.33259175     -27.30864031       0.52937670       0.34374925       1.32980307       0.77488170       2.79329674      -0.83745872       0.84920730
N      -60.30597946     -48.40938109       0.25049342       1.90016301       0.48275422       0.39420479       3.40386127      -4.55406446      -1.86842708
N      -57.85933020     -49.05133874      -1.06064520       0.95926992       0.56614183      -0.33527052      -0.83819683      -1.54889541      -1.60981711
O      -56.66867984     -43.44922621       0.85530393       1.58214907       0.00238842      -0.03053737      -0.85588622       1.61379482       0.64942301
O      -55.16468522     -44.80144183       0.29204268       0.88924723       0.84263489      -0.58263291      -1.70111753      -0.86864166      -0.54678885
O      -62.18871721     -28.14826419     -19.66158160       0.21202587      -0.17348908       1.26406431      -0.35647560      -2.46043806      -0.72926434
O      -61.62953291     -26.18441840       0.78209573      -0.43321565      -0.14943998       1.41147109       0.30539342       3.09542099      -0.01841042
O      -58.75599452     -49.86681017      -1.24258996       0.34135577       0.44401561      -0.73212339      -2.08572244       0.60782169       0.96462014
O      -56.76838477     -49.45724493      -1.48522278      -0.10833513       1.51428288      -0.82529424       1.98894446       2.08803785       0.89101949
H      -55.82395060     -48.04682281      -1.19214453      -0.44532077       0.18763514       0.01973111       1.01155622       1.81031782      -0.41522129
H      -55.15714014     -46.29330894      -0.78780648       0.07466166       0.00034548       0.20250366       0.16904036      -0.68467469      -0.14856683
H      -60.09258266     -25.20521835       0.86738354      -0.26859252       0.08214912      -0.30099123       0.65485705      -0.44472083      -0.17894851
H      -58.40497212     -24.76523696       0.66854754       0.31692882       0.30665385       0.17926671       0.62971044       0.53834240       0.15113125
H      -60.02649093     -49.36204037      -0.06483000      -0.07396982       0.03204057      -0.29790238      -0.25034991       0.94588097       0.29850466
H      -61.17812792     -48.24319160     -19.74968038       0.24338818      -0.54969698       0.30305771      -4.23140258       1.07573127       1.55048586
C      -44.56531241     -23.49072997      31.59246252      -0.87429785       0.11921427       0.35210574       1.46000201      -1.63630403       1.82921950
C      -43.39063686     -23.80643974      30.83995178      -0.13425989      -0.34891877       0.55598755       1.77623279       0.91798120       0.06284486
C      -44.41079748     -23.57463317      33.03864151       0.03967058       0.61622883      -0.46253148      -3.78260950       0.54750607      -2.04682393
N      -45.72464870     -23.34363050      30.99418558      -0.31787892       0.60663328       0.59375086      -0.47389414       0.84227396      -0.10904261
C      -42.10436728     -23.72127226      31.46133306       0.35862303      -1.50611924      -0.37066896      -0.33113703      -0.85508602       1.46747537
N      -43.25623977     -23.73806536      29.44431312      -1.68332833       1.52504639      -2.16310731      -0.97130973      -1.11388290      -0.48841227
C      -42.10003939     -23.35903268      32.78628413       0.28174518      -1.05348027       0.34562674       0.02984077      -0.09385398       1.20763945
N      -40.95260227     -23.99507232      30.90512095      -1.45591343      -0.87466555       0.92076067       4.15945819      -1.11436245      -1.32986002
C      -43.21402593     -23.40008203      33.65562947       0.19468929       0.06294581      -0.49151181       1.52698547       0.59287468      -2.68365460
N      -40.88458859     -22.93011730      33.40473272       0.69571637       0.93047208       2.03997587      -1.70695772       2.10841745       1.54775061
N      -43.08060039     -23.28511808      34.92501379      -0.13542189      -1.82880575      -0.51370257       2.16908955       1.02052968       3.36533506
N      -45.67910758     -23.47860622      33.79254592      -0.47855824       0.67786202       0.91069061      -0.18181197      -1.35570463       0.50213954
O      -42.23930855     -24.18227445      28.86973224      -1.36720010      -0.29633330      -0.14790321      -1.84092250       0.84615182      -0.30378426
O      -44.24169601     -23.32007774      28.84522912      -0.51302388      -0.58502616      -1.09898617       0.32533671       0.15939489      -1.09290439
O      -41.01695538     -21.84126149      34.03443182      -0.99035664      -0.02247638      -0.96854549       1.05500223      -1.22725185      -0.74807921
O      -39.87854668     -23.57011702      33.37626604      -0.31269888       1.30020031      -1.00453168       1.53592801      -0.56768311      -0.35969534
O      -45.75467583     -22.88181771      34.86721004      -0.72701748      -0.93013977      -0.64786255       0.76777891       0.46111262      -0.15228149
O      -46.63821849     -24.12339285      33.39063548       0.49396291      -2.16115600      -0.21948529       0.34763390       0.42698941      -0.56150992
H      -46.53691222     -23.00086028      31.49017077       0.12318286       0.20551001       0.19753569       0.23052996      -0.32356275      -0.17761304
H      -45.51996154     -23.05271899      30.06290014      -0.05084645      -0.05411245      -0.23783827      -0.94734195       0.07532447      -0.96372435
H      -40.05880363     -24.23697118      31.45030822      -0.04888175       0.34270834       0.27401742      -2.60722027       0.97108904      -0.80939488
H      -40.91384057     -24.15399423      29.88170186       0.20348424      -0.09508291       0.20713780      -0.16038674       0.14978033       1.37748535
H      -43.90036290     -23.03825944      35.38728336       0.14053383       0.09562914       0.05744821      -1.40460193       0.18119916       1.16959073
H      -42.24344256     -22.79596583      35.29415596      -0.14337317       0.01250250       0.07728460      -0.96035292      -0.89437541      -0.51879072
C      -16.91207036     -13.67524204       7.95844211       0.56443947      -0.94764530      -1.13257030      -0.74262403       1.04260385      -0.42280804
C      -16.45448766     -12.84843826       9.00131196      -0.25709203       0.10789692      -0.72898272       0.35765214       0.65114488       1.93271337
C      -17.84352448     -13.07991620       7.10463847      -0.45919644       0.25308894      -1.19424354       0.28024389      -0.17192859      -1.57900742
N      -16.57974834     -14.93340841       7.82853029      -0.80665902       0.75646638       0.71004999      -0.04503979      -1.60792919      -1.86642395
C      -17.06807527       6.91295091       9.16492823      -0.57006433       0.43511922      -1.21551941       0.71852821      -0.79929664      -0.45302873
N      -15.38806677     -13.42494940       9.87778272      -0.63627806       0.12593971      -0.09723966      -0.51071849      -0.46784256       2.11733124
C      -17.86230958       7.51947389       8.11391484       1.68841031       0.00138068      -1.49333326       0.90184254       0.45110556       2.52221267
N      -16.86194694       7.39061821      10.44125096      -0.33523557       0.13330688       0.36092961       0.55978654      -0.49103268      -1.01852896
C      -18.25564024     -11.74115733       7.19467735       0.32414656       1.52559004       1.79960476      -1.54063222      -1.57413326      -1.44644181
N      -18.28193729       8.90402455       8.33417205      -0.70857184      -0.23083402       0.87819877      -1.69401089      -1.35543455      -2.34985988
N      -19.23890828     -11.40452298       6.31463257       0.24252981       0.04882967       1.50511238      -0.98386231       3.43595272       1.01188072
N      -18.22098342     -13.85464675       5.82958027       0.55279443       0.04557040      -1.68200427       0.55236540       0.72141748       2.20303132
O      -15.34636780     -13.29680947      11.12954644      -0.29521158      -0.33580449       0.66243297      -1.07873851       1.15124616      -1.32822162
O      -14.55876435     -14.14382770       9.38490397      -1.67784909      -0.48604591       0.02804689       0.54994870      -0.45113359      -1.56279871
O      -19.30579618       9.31820941     -12.47021161      -1.24891809      -0.72664095       0.95116135      -0.51333822      -0.59847097      -0.25776244
O      -17.58810376       9.63380190       8.94811912      -1.60729881       0.88279289      -0.62438388       2.28684061       1.28927635       2.30624359
O      -18.70141957     -14.94896810       5.96643838      -1.33149157       1.12664166      -0.69986920      -0.71066324      -1.35087965       0.61924651
O      -17.93048465     -13.41407606       4.76048871      -0.56561966      -0.57288047      -0.67918280       0.41795147       1.32257387      -1.20841871
H      -16.88277877     -15.45153621       6.98723780       0.14192603      -0.07108864      -0.07323911       0.37972417       0.39126310       1.25003871
H      -15.84056707     -15.29445402       8.37231028      -0.03456252      -0.07590661      -0.34167155       0.59854964      -0.44722104       0.23690132
H      -16.64919550       8.37371715      10.48924917       0.01270487      -0.13846004       0.25171505      -0.31595081       0.07687411       0.16954501
H      -16.26860239       6.73372251      10.99126713      -0.07875448      -0.16198623       0.25451938      -0.60921211       1.03063930      -0.32206268
H      -19.22737329     -11.62035249       5.35473928      -0.09883492       0.26678442       0.10263605       0.58614495      -1.01429760      -0.68548078
H      -19.63414672     -10.44192694     -13.83800586      -0.15865071       0.03140703      -0.11970435       0.74437348      -1.35103487       0.24931679
C        9.90804406       3.50113756     -13.41910746      -0.32368589      -0.68652163      -0.31231787      -2.04318202       1.63722152      -2.06709938
C        9.06333075       2.85341065     -14.45564114      -1.91280175       0.74622072       1.72632040      -0.34087951       2.34976252       0.39935512
C        9.69843754       4.94558643     -13.09924001      -0.18117784       0.37817112      -0.21017200       0.06252047      -2.89090859      -0.98422203
N       10.86183144       2.81907919     -12.86737369       0.59632026       1.03802697      -0.28264752       1.41847118      -0.58534888       1.43341290
C        8.11530857       3.62146482     -15.26036244       0.89269057       2.26642385       0.61295501       1.17772325       0.91302443       2.41868555
N        8.93551703       1.47319422     -14.48979041       1.07732042       0.40508992      -0.68012775       1.51441189      -0.34687468       2.72925552
C        7.92544680       4.96065756     -14.81115208       0.28937855       1.33509555      -0.36040679       1.73462436      -0.50320065       1.11058055
N        7.34031749       3.12955693     -16.22282239      -0.10896633       0.18647781       0.05004763      -0.32396803       2.27638434      -0.34833077
C        8.54231181       5.61743709     -13.68936792      -1.84529655      -0.87729288       1.00528434       1.19218915       1.25480646       0.89215376
N        6.89796667       5.69504214     -15.42372527      -0.72210955      -0.12340312      -0.12341104      -0.00224456       1.11212043      -2.04163410
N        8.19465801       6.89796037     -13.26155531       0.58109779      -0.97206522      -0.27704661       1.41552938      -2.24110224      -0.65447324
N       10.46618966       5.49439019     -12.01205348      -0.78481025       0.69569462       0.51284580      -2.01120631      -0.83625788       0.31443959
O        8.32206247       0.94175179     -15.36127559      -0.53354770       0.43407288       0.54546657      -1.51752267      -1.26219769      -2.52025594
O        9.40413916       0.78810075     -13.56018398      -0.14994824       0.67447676       0.97036677       0.20032820       0.14604980      -0.19743077
O        5.98924736       5.98936142     -14.71378798      -2.14208830      -1.92510751      -0.51241719      -2.38011165       0.76612037       1.49398973
O        6.95503137       6.04963535     -16.60020147       0.88999083      -1.34770255       1.33681590       0.58546110      -0.98948662       0.10213452
O        9.91932526       6.44712149     -11.50140950      -0.20389841      -0.24482475      -1.17270316       0.54918085       1.88588132       0.92524391
O       11.46234816       4.98705416     -11.48101298       1.89210910      -0.02712906       2.82599262       0.09744938      -0.22978519      -1.15930063
H       11.34493090       3.27112428     -12.09458928       0.03895662      -0.19909958      -0.25108880       0.32050408      -0.23339284      -0.29558050
H       10.99957349       1.82605082     -13.02515170       0.17504571      -0.39325018       0.05736385      -0.46420949       0.36819752      -0.06384519
H        6.98304053       3.81341450     -16.89670362       0.29731491       0.33006864      -0.29892077       0.07728274      -0.65678769       0.43960339
H        7.54774208       2.22294727     -16.49872508       0.25717266       0.14299878      -0.06324941       0.11231945      -1.70885232      -0.84764819
H        8.73772591       7.34589988     -12.48869718       0.00878883      -0.23162519       0.06050927      -1.08981411      -1.06209374      -1.17594908
H        7.29155654       7.20184136     -13.52157151      -0.14551449       0.14648285      -0.16372887      -0.44414562       0.45664788      -0.01434748
C      -37.65824644      29.69706490      29.71171189      -0.20292966       0.00062923      -0.34175359       2.04248713      -1.56712963       0.71454885
C      -38.07432564      28.43496518      30.17361507      -1.04411507      -0.72049128      -0.94799696       0.29615195       1.38633794       2.36695397
C      -36.62114665      30.40027385      30.43380260      -0.10035884       0.12352167      -0.16255256       0.97707167       0.17612692       0.47608724
N      -38.00250660      30.04040575      28.52744988      -1.49546017      -0.05823544       0.48653158      -3.36817360      -1.26829163      -2.05770250
C      -37.64787706      27.98715606      31.48488251      -0.00434955      -0.97638344       0.18702049      -2.60653270      -1.92852937      -0.83872992
N      -39.09948426      27.76429838      29.45931284       0.07495423      -0.84657379      -0.18811165       1.65014100      -1.46979500       1.49170149
C      -36.54620397      28.56710206      32.04070836      -0.03267919       0.94758495      -0.30775830      -0.02068797       0.16320520       0.23988387
N      -38.22437679      26.90368459      32.03270317      -0.55195768       0.13261613      -0.16084988      -0.36745225      -0.37095203       0.06972242
C      -35.98138401      29.72279885      31.49706742       0.81747848      -1.20159228      -0.81924280       0.95197790      -0.46651919       2.87372062
N      -36.07498111      28.01736405      33.28525223       0.41441640       1.54283367      -0.34949784       0.67876821      -0.25569400       1.54079858
N      -34.90429164      30.17289077      32.17678846       0.12035118      -1.08619849       1.62397499      -1.01326926       3.63473903      -5.22819012
N      -36.03454086      31.61932275      29.94297418       0.70513871       1.78187166      -0.85426470      -1.14112483      -0.71854052      -1.62461306
O      -39.92314050      27.18287829      30.14775002       0.45769534       1.53369500      -1.45587224      -1.20469819      -0.10965391      -0.99598330
O      -38.92921446      27.62267717      28.26743453      -0.19393059      -0.73890271       0.78790484      -1.23998633      -0.03021152      -0.98396248
O      -36.88790155      27.78313914      13.92320851      -0.89727288      -0.45016226       0.70258551       1.21262447      -0.25774183      -1.72638606
O      -34.83749521      27.85016859      33.41977877      -0.85690238      -1.81911735      -0.19749466      -1.52899019      -0.25980301      -0.12462965
O      -36.57272464      32.03735134      28.89628619       1.25568372       0.39769466      -0.66445576       1.28443034       0.66215343       1.25776411
O      -35.06471721      32.16475152      30.47447515       0.73683226      -0.58499258      -1.09802655      -0.84579934      -0.34234235      -0.29056499
H      -37.59748417      30.79610817      28.12588143      -0.06552823       0.08139324       0.58779997       1.18467103       2.65580767      -1.30863885
H      -38.64840612      29.47204455      27.95305133      -0.03157767       0.15763022       0.08311396       0.90781303       0.40550421       0.80334282
H      -38.21178962      26.56075932      32.97500031      -0.05190464       0.17434293       0.13334554       1.25728529       0.81019346       0.31339895
H      -39.04474781      26.53806420      31.62235377      -0.09819135       0.03817413       0.10297014      -0.50573896       0.09294167      -0.96347780
H      -34.49853069      30.95215207      31.63445398      -0.06753055      -0.16348201       0.01405423       0.16291371      -0.43829520       1.20777936
H      -34.45332453      29.81125676      12.65585786      -0.22747494      -0.18195811      -0.16961069       0.84230047      -1.65730604       2.43507838
C      -86.76347426     -31.75218429      35.26919700       0.02598523      -0.53582296       0.06272421       1.92805893       1.65916229      -1.23132906
C      -85.50522475     -31.86882276      35.88070259       0.24821868       1.33359698      -0.57334086      -0.16528277      -1.57149865       1.11476840
C      -86.83070176     -30.51404969      34.49232152      -0.24534044      -1.68723926       1.04719639      -0.34475439       0.17883412       0.76263165
N      -87.64615017     -32.74301514      35.28217037      -0.36934174       0.64519824      -0.93002775      -0.99196437      -0.74102472      -0.31814293
C      -84.39008196     -30.94789758      35.92981075      -0.26763471       0.11997116      -0.24766489      -5.84117947      -0.25884123      -2.74886295
N      -85.34499178     -33.17477511      36.64972331      -0.92719081       0.04098404       0.17168712      -1.65520846       3.33797820      -0.51137578
C      -84.66427664     -29.73895671      35.26725611       0.27406695      -0.61557269       0.00749041       1.49482591       1.69871488       1.18465046
N      -83.33825350     -31.25372078      36.53920947      -0.45661517       0.23654064      -2.17864805       5.18926306      -2.14831865       2.80054979
C      -85.92251357     -29.42823140      34.60980300       0.78273274       0.14874854       1.28577854       2.26551558       1.49726694      -0.61987894
N      -83.58927498     -28.69150263      35.61150919       0.33915345      -0.94663829      -1.40176275      -3.50517306       0.11093708      -2.56921150
N      -86.06562749     -28.19596404      33.96045772       0.67862357      -0.52822836      -2.97936350      -0.28043226      -3.49939754       1.91475190
N      -87.89699155     -30.31406948      33.64154176      -0.19993959       0.90936244      -0.61702228      -3.15049822      -1.50106855      -1.03689672
O      -84.41446654     -33.85624613      36.32724302       1.10470020      -0.72097504      -0.49124081       1.03892236      -1.53667284       0.36756085
O      -86.20343238     -33.37875828      37.49055507       0.61511993       0.61270903      -1.03339124       1.04953707      -1.01943515      -0.02091496
O      -83.88825591     -27.54538779      35.33796351       0.73734055      -0.72880741       1.02294724      -0.27241707       1.06467070      -0.05591406
O      -82.49526779     -28.96123662      36.01753828       0.96278760       0.52955973       0.78323458       1.75921022      -0.97801073       0.91920187
O      -88.18750140     -29.22149078      33.19028622      -0.80713747      -0.72357278       1.36684286       0.05155093       0.71636706      -0.22245348
O      -88.64681336     -31.28484126      33.34666463       0.08314425       1.55165457       2.05833303       0.97738599       0.33540672       0.40898939
H      -88.54296750     -32.85411147      34.81467557      -0.03450333      -0.09698946       0.42992875       0.80458215       1.32644271      -0.17294649
H      -87.34147253     -33.61718262      35.63383491       0.16046896       0.21372503      -0.18091675       0.23015094      -0.37316082       0.64455554
H      -82.52267054     -30.61244904      36.54637592      -0.39626214      -0.11566647      -0.29966057      -1.07221034      -0.73594181       0.08834978