1296
Lattice="-47.58749930797992 -9.388452504736676 21.45180697792787 0.0 14.296583619619591 13.302773997024595 0.0 0.0 -29.086954884622312" Properties=species:S:1:pos:R:3:momenta:R:3:forces:R:3 energy=-1487780.2919304152 free_energy=-1487780.2919304152 stress="0.0021817601595819926 -0.0013323392351168978 -0.0017075805474005988 -0.0013323392351168978 0.0038090802410336503 0.001034798929208337 -0.0017075805474005988 0.001034798929208337 0.0013593717784306338" pbc="T T T"
C      -29.14053696      -0.99276923       6.58951336      -0.78187956       0.13371536      -0.92434093      -3.05636132      -3.69809239      -1.90473499
C      -28.46378516      -1.55645845       5.43608405      -0.94829850       1.42439126       0.33680521      -0.53563240       0.62906744       0.98429966
C      -30.54024098      -1.52006002       6.80789995       1.95464580      -1.32165966       0.40497738       2.49269445       1.04504128       0.55196746
N      -28.50347352      -0.20751485       7.39028008      -0.71364967      -1.49019979       0.45464646       1.60023429       2.69518158       1.97439640
C      -29.02991996      11.77613107      17.89425175      -0.74194613       0.69745945       2.10070683      -0.86024941      -1.65768723      -0.79128882
N      -27.00694866      -1.57315805       5.48518003      -0.29884072      -0.87389843      -0.01798755       3.56082062      -1.15901263      -0.53963521
C      -30.39381647      11.33160583      18.14725829       0.13869876       0.26775250      -0.77929077       0.91394282       1.15281670       0.85849724
N      -28.25330943      11.17070594      16.92960132       1.09483970      -0.73632670       0.45643887       0.75704129       1.39522164      -0.24547194
C      -31.11796397      -2.56700478       6.01876062      -0.09741530      -1.02679624      -1.23194165       4.37346157       2.68894694      -1.60741243
N      -30.98938040      10.19195579      17.47131425      -0.03544186       0.94857050       0.47015371       1.99871320      -0.18230786      -0.05867368
N      -32.28230428      -3.00374623       6.24209112       0.61014593       0.29988017      -0.67839136      -4.33878479      -0.88157089       3.89951060
N      -31.22729722      -1.01545398       7.96997544      -0.63202779      -0.10738297      -0.36756588      -1.93256459      -3.46214149      -1.08896055
O      -26.46049502      -2.05801988       6.47343503      -0.88493464       1.77707372       0.28429850      -1.34052697       0.66783330       0.33933669
O      -26.25091220      -1.30803292       4.51327916      -0.54552192       1.34990968       0.15055874      -2.33582491       0.40505383       0.36528521
O      -30.31374882       9.18366030     -11.64095829       0.18041341      -0.24249238      -0.23539046       0.57117616      -0.23471416      -0.11014235
O      -32.09278859      10.26153116      16.99295144      -0.79467267       1.25803914       0.40937312      -1.34511737       0.49415829      -0.30316851
O      -30.99628697       0.06420086       8.36205406      -0.21661693      -0.38332146       2.89021412       1.55953643       3.71148163       1.15028859
O      -32.13014364      -1.69655248       8.53023757       0.56223286       0.24934508       0.73860815       0.61116991      -0.24578979      -0.76368691
H      -28.94022364       0.19894997       8.27143586       0.02709653       0.26187698      -0.12339679       0.71101575      -0.82880327      -1.94674883
H      -27.54221768       0.11047962       7.09808152      -0.17786255       0.23120156      -0.18737199      -1.81439494      -0.50728440       1.03197939
H      -28.69633143      10.76459758      16.11399844      -0.05831037       0.20018617       0.18745318      -0.15475949      -0.06919713       0.50364950
H      -27.36046309      11.66472702      16.65871104      -0.05086595      -0.49671071       0.02939162      -1.66057319      -0.73411967       0.59766214
H      -32.71130563      -2.89488882       7.21803421       0.01133462      -0.19450109       0.08624077       1.09875770       0.04925128      -2.06596772
H      -32.64865499      -3.68325845     -23.43454353      -0.06767513      -0.11912721      -0.19037962      -0.89406185      -1.04843965      -0.81351143
C      -47.85094621      -3.33618073      -1.89006306       0.70461845       0.07419425       1.30350277      -1.81816433      -0.05012675      -1.36010556
C      -47.66117449      -4.39628891      -0.91217615       0.30405426      -0.05704763       0.84551003       2.48827161       0.85970612      -1.69718500
C      -49.23499055      -3.25883023      -2.48508758      -0.45189711       1.23429915      -1.69302020       1.07850834      -2.70829979       1.90492891
N      -46.89758110      -2.46994437      -2.33259036      -1.10552468      -0.41195560      -0.81434166      -0.18800253      -1.51936614       2.71391926
C      -48.51960113      -5.50000376      -0.78728953      -0.36015577       0.39286063       0.52870570      -4.41865840      -0.64882162       1.51265518
N      -46.30662824      -4.54650678      -0.38110500      -1.21079206      -0.73860612      -0.27138550       1.27822967       0.57768975       1.10242679
C      -49.86613982      -5.46067899      -1.40737120      -0.20113880      -0.01141142       0.19241164       1.79316985       2.26150737       0.57223553
N      -48.41458810      -6.44074911       0.15967653       0.07133842      -0.13278762       1.20773183       2.15351140      -1.33157533       0.78013824
C      -50.23650076      -4.32128092      -2.21745540       0.44360045       1.86807955       0.17732132       1.13824388      -0.36055984      -0.82219843
N      -50.91476770      -6.23639204      -0.78205175       1.01749377       0.32623840      -0.32502352       1.91270998      -0.58767162      -1.64468799
N      -51.37645327      -4.37020118      -2.90044591      -0.31694176       0.18669723      -0.34491915       2.17312860       1.28343100       0.97731951
N      -49.53954287      -2.30122223      -3.45724144      -0.13631916      -0.43097491      -0.99654965      -1.13054527      -1.13240693       1.76301204
O      -45.36400176      -3.87856408      -0.82576912      -0.23606917       0.26387297      -1.05898651      -1.24550974      -0.37622754      -0.03327998
O      -46.08911403      -5.27323800       0.60639972       0.76238017      -0.81401710       2.07102731      -0.86810049      -0.01336889      -0.92663201
O      -52.00403045      -5.78113788      -0.65327915      -0.25752169      -1.66061823      -0.30379578      -2.01271774       0.90091992       0.33695398
O      -50.61965902      -7.38649875      -0.47114942       0.41395226       0.87791744      -0.18988872      -0.42984953      -0.85043941       0.62601297
O      -48.71452530      -1.53884463      -3.78849043       0.26078780      -1.06071866      -0.67148423       4.01357701       3.53990280      -1.20605990
O      -50.65152695      -2.17054085      -3.89293452      -0.97685454       1.29292824       1.78801678      -3.12053151      -0.48293457      -0.96282972
H      -46.07990038      -2.35890545      -1.72220283      -0.02263610      -0.09583353       0.02739713      -0.55829235      -0.42993868      -0.87328277
H      -47.24515636      -1.71331296      -2.86833984      -0.25498635       0.03470719       0.06464751      -0.25448256       0.58730083      -0.64999349
H      -49.15709440      -7.16044789       0.33744688       0.07167641       0.29035412      -0.05580876       0.92761106       1.19758509      -0.92274493
H      -47.47761891      -6.64677836       0.54914940      -0.06958726       0.20188983      -0.32163635      -1.01562843       0.67639800      -0.39970864
H      -51.60165117      -3.66201922      -3.52730921      -0.02121996      -0.37981496       0.05179817      -0.08233802       1.43315528      -0.96046226
H      -52.03176624      -5.04538676      -2.77785423      -0.01602237       0.32523201       0.13744142      -1.83581644      -2.54322576       0.66937411
C      -48.00652815      -9.23315073     -35.46974546       0.91325379       2.23268540       1.31079646      -1.14276146      -0.59273881      -0.53322662
C      -48.18437913      -8.52898226     -34.21933827       0.25104749       1.01674019       0.92319078       0.13346092      -0.84949138       0.58382278
C      -46.73954967      -9.28898954     -36.07424070       0.33223578      -0.76840772      -0.08446036       0.75146996       0.80454910       0.10231758
N      -49.09281470      -9.78491047     -36.00748713      -0.31388228      -0.47792815       0.51954557      -0.51493888      -0.49558250       0.43576725
C      -47.14907132       6.62201046     -20.46615617       0.47904278      -0.85728715       0.28429742      -0.06179548      -0.33831389      -0.91255322
N      -49.25297091      -8.91569486     -33.29163864       1.12887601      -0.02387236      -0.09154379       1.07680802       2.84473658       0.02966312
C      -45.95488560       6.70481787     -21.28607244       0.12610529       0.27537232       0.09640020      -1.49972461       2.75331372       2.38169349
N      -47.28527466       7.26628773     -19.34431289      -1.34346633       0.01220939       0.33182936       1.73506712       1.53178946       0.69903474
C      -45.67962170      -8.40745378     -35.62262359      -0.16473887       1.55916265       0.62640685      -1.33259849      -2.29299657      -0.78486932
N      -45.08001707       7.79346412     -20.99335400       0.43125829      -0.73032122      -0.13580342       3.43131873      -0.76620223       2.29591327
N      -44.53108236      -8.42930484     -36.20992720       0.96579444      -0.55016544       1.32627304       1.83067916       2.93000618       1.19525142
N      -46.47981036     -10.10642925     -37.18409096       1.41394496      -0.46983698      -0.48282138      -2.55734690      -1.08318329      -0.14866679
O      -49.45639556      -8.27994648     -32.22596253       0.78646820       0.11573931      -3.08737590       0.64761413      -0.84419864      -1.14035175
O      -49.99537765      -9.79647504     -33.62801347       0.77513203       0.29902800       0.42481429      -1.37500400      -1.62551259       0.14737054
O      -43.82726039       7.64194559     -50.17465761       2.08800847       0.57915203       0.30603916      -1.08356060      -0.37691774      -1.55203452
O      -45.45640054       8.76408075     -20.39005156       1.21588656      -0.35788588       0.21127045      -1.51731983       1.08419533      -0.01039267
O      -47.45526010     -10.59969252     -37.82343306      -1.73626099      -0.69338164       2.21297122       1.84986930       0.54594351       0.85985177
O      -45.31880732     -10.38582443     -37.45547679      -0.49095746       0.30383292      -0.26808076      -0.04466146      -0.53138835      -0.98921586
H      -49.14176273     -10.53167915     -36.69899428      -0.24650336      -0.09610027      -0.14165075       0.92166248       0.82853312       0.23291314
H      -49.78647952      -9.84219135     -35.27905298       0.11395452      -0.22784943      -0.36599795      -0.62613917      -0.21948900      -0.35136401
H      -46.54664049       7.94068625     -19.09216368      -0.06609738       0.26626055      -0.00695742      -1.01657167      -0.63241638      -0.16258006
H      -48.13960908       7.14464974     -18.82820636      -0.15609458      -0.30133744      -0.04305735      -0.32870921      -0.13999729       0.22148559
H      -44.51355172      -9.00643263     -36.97671484       0.25431436      -0.01003043       0.20072699       1.10483689      -1.53985667      -2.14032068
H      -43.84697415      -7.70900555     -65.01392190      -0.24426528      -0.03261277      -0.02030030      -0.39273052      -0.94317684      -0.25546390
C      -34.52260285     -14.10732915       9.61441802       1.29426180      -0.00941075       0.48637707       1.13070939       1.07376872       1.37837493
C      -35.28396673     -15.26470871       9.56321296       0.22135039       0.16458778       0.53456703      -1.38325363      -0.61796652       0.40398189
C      -34.25960431     -13.50913304      10.95910475       1.03866129      -0.06879479      -0.54750364      -0.33433216      -1.65758728      -2.19870592
N      -34.08317224     -13.59055832       8.46468596       0.01743540       0.97226379       0.81755587       0.04921277      -1.15332582      -0.38199828
C      -35.75366878     -15.95659846      10.70516869       1.17603470      -0.87679665      -0.31794482      -0.68010639      -0.27465917       3.51953117
N      -35.89672822     -15.71401135       8.35206822       0.39543598      -0.52080236       0.07567033       0.42027344      -1.31648729       0.31650477
C      -35.67794926     -15.22170313      12.00296346      -0.09602331      -0.10470549       0.00374881       2.16409497      -1.31123677      -0.96100951
N      -36.19733673     -17.25963221      10.69107915      -0.15628272      -0.27250228       0.45414955       0.23811071       1.76191331       1.28555026
C      -34.77146923     -14.03070887      12.16830836      -0.01904578      -0.53966047       0.43639146      -2.09106819      -1.35397156      -0.09841904
N      -36.03189376     -15.95196610      13.21977976       0.75073956       1.36148088       0.00350289      -2.61143948       0.12639662      -0.69229182
N      -34.60698410     -13.40836415      13.32158268       0.32474494       0.56975039       1.49073075       0.16912842      -0.92101629      -0.37236368
N      -33.84621835     -12.20326049      10.94088996      -1.20094952      -1.15990797       1.16505020      -1.22663376       1.51643384      -0.53477744
O      -37.01238849     -16.19114625       8.46370799       0.79250175      -3.00555271       0.22972364      -0.43364950       0.24250577      -0.57021723
O      -35.25531319     -15.74598214       7.31712501       0.00650945      -0.29624002      -0.57994452       0.25030014       0.57387996      -0.82242682
O      -35.51615387     -15.61919446      14.25646755       0.13125101      -0.38363524       0.67947005       0.62932672       0.18081161       0.98670487
O      -36.99436246     -16.76696811      13.21100273      -0.44294488      -0.24892623       0.24083593       1.71082252       0.66642593      -0.71182238
O      -34.11565568     -11.49558519      11.93243897      -0.89382927      -0.63907670      -0.58170853       1.06495637       0.82173734      -0.29070832
O      -33.49581148     -11.72027169       9.87485660      -0.47110348       0.24613872      -0.21123537       0.99253783       0.83883766       0.71306203
H      -33.29737349     -12.94727892       8.44734877       0.15663360      -0.56774407      -0.18063923      -0.73787629      -0.17854787       0.10222205
H      -34.24052105     -14.26404190       7.70537807       0.19598877      -0.07964275      -0.18573800       0.44936067       0.84691979       0.10562751
H      -36.57890022     -17.67653221      11.59151656      -0.20284578       0.17625177       0.24089707       0.55484206       0.98393180      -1.72157194
H      -36.43072701     -17.63142735       9.78801397      -0.19810213      -0.09580053       0.08522328      -0.12042736      -0.26988838       0.29393659
H      -34.23181459     -12.44404414      13.24426505       0.16248415       0.00941434      -0.22304116      -0.45360604      -1.06941709       0.47317675
H      -34.98318612     -13.91183826      14.13026764       0.02710801      -0.01045212      -0.29760232       0.25342870       0.77591588      -0.24339668
C      -21.64744640      -3.19103911       5.17888131      -0.19589662       1.03314283       0.57722185      -0.81628564       1.52028296      -0.70491326
C      -21.63531257      -3.79406204       6.44831657       0.48191250       0.83210436      -0.70821915      -1.00746951      -0.06276010       0.74988750
C      -22.28843098      -3.87351446       4.11022250       0.82145585       0.95233211       0.77156247      -0.43446415      -0.24964723      -2.02792597
N      -21.32664849      -1.90773471       4.89323066      -0.86069440       0.11138322      -1.88282643       1.80003253       0.94372156       1.09184318
C      -22.54289270       9.38613919      19.98031205       0.65683792       0.10200484      -1.50483500       0.67528256       0.46506396      -1.15136436
N      -21.13087426      -3.08889000       7.67846418       0.10613997       0.40146801       1.18732755      -1.29764422       2.50436052      -0.21625298
C      -23.35919932       8.94518155      18.91857975       0.68367292      -0.73965580       0.18478086       0.68300685      -2.13784640       0.50564023
N      -22.62809638       8.81607990      21.17501254      -0.98016785      -0.03055495       1.21630130       0.77620627      -0.03081520       0.95921873
C      -23.24793380      -4.90406718       4.28222036       0.55419231      -0.82254131      -0.20805474       1.09570129       1.25859401       1.32896566
N      -24.01478052       7.58018341      19.05402713      -0.71779896       1.38469697      -1.31277117      -1.77765064       3.16386013      -0.06616061
N      -23.96462134      -5.40165940       3.32319602       1.35200970      -1.47364279       0.56937796      -2.07710371      -2.17673453      -2.52413498
N      -22.07050660      -3.37556184       2.73810182      -1.46218381       0.03174928      -0.03757429       0.32567257      -0.09941474      -1.46760295
O      -21.40970808      -1.84754031       7.86071207      -0.32031387       0.30734814      -0.02759448       1.00841341      -3.37351051      -1.11252112
O      -20.55559510      -3.75637650       8.50902542       1.52321556       0.08880461       0.18992964      -0.11108509       0.07258885      -0.23905749
O      -25.14091669       7.56800720     -10.52654848       0.83856338       0.95018284       1.05608403      -0.15943742      -0.52607096      -0.36397911
O      -23.58266241       6.66570704      19.68559538       0.37933838       0.10412304      -0.19963574       1.38105844      -0.98400794       0.76434443
O      -21.00597644      -2.83077101       2.45016332      -1.04953033      -1.44082499      -1.19943244      -0.08988775       0.03332597       1.02052968
O      -22.88563842      -3.53916987       1.80610593       2.10668989       2.57627868      -0.53708210      -0.12143024      -0.44874162       1.60200695
H      -21.13523968      -1.59902581       3.90953861       0.15737008       0.25591284      -0.37165372      -0.26517292      -0.63243994       1.64390371
H      -20.90359027      -1.34120135       5.65949600      -0.09222924      -0.16768475      -0.33372980      -0.64588567      -0.75425520      -1.05893149
H      -23.18808238       7.98017630      21.31032821      -0.41179193      -0.06629781       0.18735783       0.57684380       0.36338573      -0.03008664
H      -21.76363567       8.97669588      21.69796399      -0.02441635      -0.37087004      -0.02057210      -0.80313068      -0.46530559       0.37734313
H      -23.88186918      -5.06078538       2.37391574       0.07907029      -0.07474171      -0.15324455       0.26780996       0.35169954       0.40556992
H      -24.62095828      -6.20907802     -25.66430394      -0.06706154       0.09295066      -0.01656602       1.05485072       1.34400373       0.47062344
C       -3.12512567      11.20035802       4.77927279      -0.73682274       1.23068066       0.72124691      -1.73486439      -1.18556809       0.09800437
C       -2.91276106      10.45711664       6.00750802      -1.02284868      -0.16065035      -0.27466265       0.72556428      -0.57644332      -1.62747322
C       -2.14374654      12.05782872       4.30831204       0.04697305      -0.65863531       1.65402959       1.74703738      -0.15281302       1.07712392
N       -4.25001230      10.96439453       4.03483226      -1.11260393       0.52518425       0.32446013       0.99456012       2.11052804      -0.43479289
C       -1.62656554      10.17224761       6.55060165       0.70150065       0.89876503       0.63143642      -0.33502514       1.72872389       1.08462265
N       -4.04321118       9.77513510       6.50968857      -0.08115936      -1.04577193      -0.29977583      -0.08919782       0.69069350      -0.54979717
C       -0.60193504      10.95030385       5.97698079       1.01598551      -0.08897080      -0.75604160      -0.67032410      -0.49669149      -0.21900032
N       -1.50996620       9.43725312       7.67154338      -0.32413521      -0.13466928       1.28280278      -3.52401334      -0.69046520      -2.46531448
C       -0.81558622      11.81213211       4.86649916       0.13206192      -0.26628661      -0.64592809       1.45790352       1.19017034      -1.06618458
N        0.67647367      10.82359366       6.60000559       1.46578683      -0.31058806      -0.89197208       1.46301401       0.20181501      -2.11647359
N        0.27151498      12.42795897       4.34653620      -0.71812535       0.75150250       0.88519757       0.20999553      -2.23115796       2.56564955
N       -2.34139848      12.94674857       3.18757384       0.82445955      -1.07498992       0.03123288       2.38173770       0.14361439      -1.33463608
O       -5.10187536      10.30543618       6.36884756       0.59319639      -0.91847990      -0.90591754      -2.38013137       1.52750848       0.07596303
O       -3.97745992       8.70258176       7.05905564      -1.25216811      -2.13837879       0.42786038       1.19542348      -2.29387436       1.22272771
O        0.75314081      10.74462805       7.78045966       0.02317461      -0.30198308      -0.04604581      -0.16997481      -0.26187280       2.07962623
O        1.71724679      10.81492601       5.89578205      -0.78811124       0.56626688      -0.29968199      -1.27614762       0.53027535      -0.12625655
O       -1.37423824      13.27595412       2.49459925      -1.29257882       0.69581045       0.27810722       1.71824020      -0.60006053       0.72260611
O       -3.37738789      13.41368616       2.84406315      -0.03624583       0.19823573      -0.48287965      -3.76080949      -0.38696691       1.03014232
H       -4.59210785      11.75752760       3.45646187      -0.48509484       0.24939179       0.04128427       0.39115444      -1.28483087       0.46941036
H       -4.73459556      10.09299902       4.08198910      -0.09771033      -0.10893680      -0.06054948      -0.48311809       0.17836051       0.29952416
H       -0.73698399       9.25241830       8.22746084       0.20367284      -0.07192355      -0.38198757       1.34341039      -0.00064178       0.42282776
H       -2.35220937       8.81192564       7.73160053      -0.21316971      -0.19746255      -0.11664276       1.51948933       0.68964643       0.63231675
H        0.09497230      13.02956270       3.61775006       0.02449136      -0.11125397      -0.23660551       0.00253834       1.36512170      -1.99638403
H        1.20059359      12.03892711       4.59590606      -0.08309960      -0.04472053      -0.02868496      -1.19220388       0.72163943      -0.39146443
C      -32.41945470      19.77731148      47.43090997       0.51868961      -0.88610271      -0.29245741       1.35142134      -0.26781705       0.62587523
C      -32.32890524      20.94289524      48.24426722      -0.16284996       0.49184366       0.34071705       0.71572227       0.39595046       1.48666039
C      -31.65942962      18.66221205      47.73705325      -0.14210972       0.20706579       0.29758203      -0.57842649      -0.72816922       0.88895678
N      -33.06394246      19.75294757      46.29171984       0.01417552      -0.80331501      -1.24502000      -1.61687972      -0.95800730      -1.04137602
C      -31.36403054      21.06927714      49.28693735       0.80274899      -1.40758698       0.07925720       3.06198230      -1.13603667       0.18302051
N      -33.06586267      22.06923097      47.93921240      -0.83297303       0.23133668      -0.10807025      -0.40217173       3.41173370       0.16255726
C      -30.53222223      19.88727620      49.55817617      -2.16262499      -1.36824112       1.58332926      -2.10202751       1.69191191      -0.18728978
N      -30.95468558      22.19565316      49.88677305      -0.52752575       1.32447670      -1.21094146      -1.83770572       0.50480029      -0.76200903
C      -30.73639968      18.66615672      48.83301919      -0.03002560      -1.28733639      -0.72772496      -0.19830376       0.60555551      -0.96656984
N      -29.60615059      19.93319658      50.67019210      -0.84082689       0.83168647       2.18077304      -0.75892087      -3.76330697      -1.40728086
N      -29.96576456      17.62550079      49.06375190      -1.24909489      -0.92220539       0.01394410       0.06238326      -1.75376602       1.83141810
N      -31.81958840      17.40547372      46.86566398       0.76397047      -0.11947633      -0.21075582       1.88505361       2.98254070       2.68542182
O      -32.98796874      23.14414019      48.65502615      -0.50144707       1.40385674      -0.97237497      -0.44073262      -3.09391420      -1.86990159
O      -33.75660328      22.03435393      46.91450708       1.18929397       0.21355751      -1.59474186      -0.15294353       1.19094310       0.80379703
O      -28.99068001      20.85194715      21.98117233       0.72876236      -1.03370710       1.03312406       0.74499592       3.42722810       0.27343060
O      -29.40197709      18.81953707      51.15972468      -0.79555141      -1.06325949       0.09923708       0.14926425      -0.72166268       1.14504996
O      -30.74861123      16.89375633      46.69486071       0.61541613      -0.46479423       0.69124582       0.86536677      -1.59040354      -1.10620947
O      -32.87244676      17.00229837      46.48167327      -2.27779584      -0.29449713      -0.41898935      -1.62076703      -0.38239895      -0.66079558
H      -33.52952939      18.84423935      46.15824565       0.18740974       0.32456275       0.43970650       0.33249505       0.97197123      -0.70206830
H      -33.48452954      20.63738464      46.07161110       0.01111861       0.24587418       0.04718676      -0.78562584      -0.29280263      -0.25411824
H      -30.29483862      22.19567458      50.59556258       0.11665512      -0.16860035      -0.18450034       1.41986812      -0.76212167       1.08024233
H      -31.39937814      23.08849553      49.81050012      -0.21009402      -0.02308553       0.45297061      -0.85970333      -0.34487233      -0.75704654
H      -30.21544160      16.72302611      48.65583085       0.08373833      -0.08314737      -0.45289853       0.37755523       0.83212699       0.11216194
H      -29.65957093      17.65119784      20.97836415       0.13932835      -0.01096659      -0.58528975       0.15607843      -0.45323553      -1.35014721
C      -65.79154363      -5.65620329       9.31991763      -1.19825629      -0.71045613       0.17588585      -0.50280789      -2.08558710       0.96161950
C      -64.85906941      -4.69218492       8.76012189       0.04960503       0.29149584       0.18371790      -0.24461601      -5.50187940       1.48682039
C      -67.15659706      -5.32517386       9.59436719       0.04060992      -0.64072757      -1.32939859       0.48214172       2.99944569      -0.54776345
N      -65.41458959      -6.93274123       9.58806265       0.23221617       0.00610638      -0.54448456       2.05112073      -1.19338376       0.05254783
C      -65.37193684      -3.51486200       8.33544389      -0.24438181      -1.45312556       0.89405299      -2.30865780       3.22293192      -0.62085317
N      -63.57037909      -5.32482004       8.30740006      -1.51544112       0.82937641      -0.49883371      -1.68828258       1.60456452       1.22590530
C      -66.75376104      -3.06145370       8.69274381       0.32788526      -0.98287357      -0.63108063       2.06146829      -2.67040002      -0.22278091
N      -64.53043542      -2.69566074       7.70096900      -0.33829247       1.44740536       0.74545947       3.03983921      -1.19432462      -1.31365169
C      -67.59602493      -3.93965724       9.50425133       0.46743851       0.97082108      -0.07364974       2.23283965       1.71079252      -0.56666841
N      -67.03037610      -1.61362882       8.39126913      -0.14669933       0.74519977       0.32222388      -0.20997591      -3.05007636       1.41615527
N      -68.53854192      -3.38396643      10.26828161       0.73567452       0.51022901       0.37781582      -1.13063557      -1.88651597       1.22237668
N      -68.05650625      -6.19971725      10.19328863       2.07397113       0.26921670       0.22690494      -1.42600510       1.42172745      -0.70561115
O      -63.08808817      -6.27207888       8.92426485      -0.97499253      -2.00629275      -0.99759966       0.41789447       0.43108815      -0.45136997
O      -63.02640343      -4.80214664       7.36779250       1.64579730       0.79953165       1.46883015       1.10488014      -0.05481487      -1.01450646
O      -66.75288829      -0.84230416       9.24136440      -2.24556764      -0.06474534      -0.50890458       1.27116316       2.05933612       2.90072775
O      -67.56593774      -1.29077210       7.39667851       0.09003223      -0.24893320       0.47203487      -1.38672608       0.11287515      -3.30290214
O      -69.25235169      -5.88766302      10.24892884      -0.07856779       1.08937864      -1.54729153       0.37276554      -0.04530980       0.00649167
O      -67.64535098      -7.23641272      10.60337437       0.73501160      -0.77545632      -1.13558308       0.27897250      -3.22628703       1.49570353
H      -66.01904520      -7.71362633       9.95010581      -0.35308271      -0.41180268       0.54684875       0.51510105       2.10996862      -0.62249470
H      -64.37546192      -7.14963791       9.52333238       0.18433943       0.18592363       0.49514182      -2.24217098       0.54926531      -0.00385376
H      -64.87985628      -2.05925888       7.05854817       0.02722028      -0.17993501       0.19002247      -1.14250367       1.63243363      -0.90485455