1296
Lattice="-43.38724107426378 5.459998326493558 42.989828557939056 0.0 16.16826031088157 1.6314906848499935 0.0 0.0 -28.200113972648367" Properties=species:S:1:pos:R:3:momenta:R:3:forces:R:3 energy=-1487790.6316017744 free_energy=-1487790.6316017744 stress="0.003663972989974225 4.443507100543844e-05 -0.00023757597813509447 4.443507100543844e-05 0.003880726166920393 -0.0008792685408639801 -0.00023757597813509447 -0.0008792685408639801 0.00587512321556823" pbc="T T T"
C      -30.47575558      15.66987735      26.54808345      -1.16317027      -0.07931447       0.51549657       0.19497190       0.36170695      -1.43446167
C      -31.66134695      16.42458747      26.67556017      -0.71231626       0.82091435       0.30914995       0.22157043      -0.23379764      -2.26503055
C      -29.60685769      15.52922789      27.64506019       1.44592207      -0.76282478      -0.01544472       0.38613115      -0.42732939       0.40027516
N      -30.06185995      15.21050788      25.36797630      -0.70298268       1.12255112       0.23251167      -0.19583259      -1.97406832      -2.44710366
C      -31.89785170      33.35906802      29.44631553       0.06768118       0.20317926       0.03863225       1.34288235      -2.34619031      -0.94588793
N      -32.43791628      16.73813240      25.40508621      -0.20299564      -0.28685296       0.71832155       3.10659938      -0.84686681      -0.20623152
C      -31.19897969      33.10281028      30.61142169      -0.95515600       0.19353505      -0.88233960       2.76161820      -2.78908131       0.09590813
N      -32.81592846      34.22102292      29.46328146       0.26833511      -1.30612151      -1.46559902      -3.00613629       3.69798625       3.04992754
C      -30.08977083      15.97516412      28.94618549      -0.74175370      -0.66043139       1.66827386      -1.04412233       0.80507594       0.19575691
N      -31.56000968      33.65033291      31.86860359       1.51768350      -0.65373336      -0.16783382       0.93010474      -1.58436316       1.75553150
N      -29.59079583      15.51884720      30.09692450      -0.63767558       1.21237808      -0.85870216       1.15841528      -0.22141939      -0.14844949
N      -28.23519254      14.94953697      27.32074150      -0.50351188      -0.12054206       0.94366408       0.65406597       1.39419418       2.15498188
O      -33.58534622      17.04695962      25.49138172       1.25452785      -0.59902590      -1.23286641      -1.92685065       0.65711054       0.54977112
O      -31.86282361      16.65192284      24.30293453       0.66313120      -0.12770018      -0.82932254      -0.72331598       0.09644987       1.27691744
O      -31.72875362      34.85568973       3.74668028      -1.72383726       1.13763959      -0.30438537      -0.96534796       0.30226254       0.13511648
O      -31.56032880      32.88649707      32.86685866      -0.45222741      -1.57852287      -1.37461079      -0.30345751       1.74657413      -1.44268921
O      -28.02557664      14.11995629      26.45337106       0.25773020      -0.85573652       0.57753233      -0.67816226      -0.26792754       0.20973221
O      -27.28198156      15.40660859      27.97671888       0.54836802      -0.12876104      -1.19864203      -1.49589074      -0.34839305       0.01138890
H      -29.29292397      14.54425064      25.35090895       0.14957174       0.49055853       0.43385538      -0.08283885       0.46897394       0.49680047
H      -30.62356278      15.05521294      24.50115085       0.09381600      -0.38495446       0.16583936       0.17606996       1.17918437       1.89128135
H      -32.94404498      34.60520204      30.40722114       0.35485278       0.23180512      -0.38917991      -0.49338842       0.48034515      -1.23306485
H      -33.47843603      34.38300341      28.76561272      -0.25103678       0.06536412       0.09621629      -0.72110027      -0.01887232      -1.03321133
H      -28.69359252      15.10365207      30.00268065      -0.04510648      -0.14487029      -0.15132312       0.68436584      -0.43284047       0.10983358
H      -29.87718308      15.73251489       2.85492519      -0.26706342       0.16268020       0.32133596      -0.30339803       0.27088365      -1.01007001
C      -39.87929325      10.11155109       8.95019228      -0.76958916       0.54866181       0.38802608      -0.46602568       1.25627400      -1.99773208
C      -38.52834772       9.61019316       8.93348213      -0.17614715      -0.04104812       0.00111827       0.60126206      -0.10650510       0.80539947
C      -40.45257382      10.61835152      10.13517563      -0.76164441       0.41367878       0.78064602      -0.08524792      -0.59178571       2.36858963
N      -40.50597547      10.30323449       7.78497331       0.33064617       0.22336667      -0.64780124      -0.75754028      -0.47433432      -1.13520674
C      -37.73711701       9.56285011      10.19223543      -0.45675577      -1.35778809       0.14179035       1.13368372      -0.38370372      -1.14853466
N      -37.96595125       9.21600245       7.64682417      -1.11734338       1.42329082       0.03507568      -0.40779685      -0.83842633      -0.53329047
C      -38.36067864       9.95011995      11.41904807      -0.28452743       1.69846560       0.67253091      -1.62100044       0.32303130      -0.68803191
N      -36.43859239       9.16215984      10.16973603      -0.20259790       0.72854014      -1.68261977      -1.33752208       0.41996153       0.48173877
C      -39.67559544      10.66044026      11.31853506       0.24408523       0.79032124       0.48694909       1.36142876      -1.52069098       0.78298884
N      -37.81918160       9.57455745      12.75002338      -0.09709400      -0.24934169      -0.20159168      -2.38417649      -1.28723076      -0.10053227
N      -40.10329428      11.33000655      12.40533128       1.59492570       1.42296817      -0.80301000      -1.36886793      -0.05800651      -0.32450168
N      -41.93983794      10.78252395      10.33313785       1.29793705       1.20019895       0.30875404       1.41625705       0.38898389      -2.47490435
O      -36.74686115       9.02170183       7.50271332       1.05440854      -0.43567173      -0.00351934      -1.62567430       0.38070357       0.41235484
O      -38.76962200       8.98746045       6.66918156      -0.04531595      -0.88287426       1.68499110       2.44234068       0.04667784       1.58568451
O      -36.65906455       9.19759540      12.93016669      -0.08151862      -1.97534039       0.06282858      -1.34807104       0.88958868      -0.34912208
O      -38.74117505       9.43165293      13.63214015      -1.02316927      -0.19509073       0.73638614       2.85176723       0.54421207      -1.12731445
O      -42.56848239      11.01697492       9.29758003      -0.96099862      -0.64976427       0.32278567      -0.10315129      -0.08875374       1.22540667
O      -42.43845671      10.64009761      11.42923104       1.01751568      -0.00600755       0.23957214      -0.13325308      -0.08349958      -0.02580749
H      -41.34199512      10.84090976       7.56635547       0.37635270      -0.08956065       0.24494799       0.22040238      -0.20529110       1.42900567
H      -40.16818864       9.80285177       6.96001236       0.32354329      -0.03646520      -0.27105739       0.22029540       0.35511405       0.67781070
H      -36.00013652       9.16673040      11.10742523       0.27375944      -0.05450529       0.06875703       0.07388429      -0.09203700      -1.32463559
H      -35.95243210       9.08611941       9.26037608      -0.15510742      -0.01016355      -0.05847285      -0.38358658      -0.06423845       1.13210680
H      -41.12098333      11.29145402      12.54382099      -0.00383605       0.13398053      -0.07776776       0.58064418       0.32585902      -0.37994029
H      -39.66060807      11.03783214      13.23662312       0.03409148      -0.37402955      -0.05203444       0.64225738      -0.14388798       0.84826332
C      -44.14470797       6.14302524      -6.67247847       0.48754986      -0.20759873      -1.94412376      -0.06283525       2.36163998       1.05486388
C      -45.40872359       6.49966132      -6.07004075       0.84353810      -0.44990947       0.58980901       1.75963345      -0.06704526      -2.43836141
C      -43.15158735       5.52420375      -5.76962810       0.11727195      -0.72819494       0.33899549      -1.88290008       0.78551965      -3.68406869
N      -43.78406810       6.69752432      -7.87923234      -2.24604114       0.44397678      -0.51260198      -0.64385775      -1.50074173       3.33781603
C      -45.73444883      22.44874276      -3.10861932      -0.26529170      -0.76504230      -0.53427915      -1.36909201       0.37318727       0.66447679
N      -46.21041746       7.33525271      -6.97291126      -0.07955695      -0.17640558       0.64743090       0.43461389      -2.12844068      -1.08401251
C      -44.77592379      21.81715202      -2.29389502       0.11239647       0.27129565      -0.30984354       0.11601721      -0.22763021      -0.34632616
N      -46.97395844      22.83145240      -2.69582671       0.02426313      -0.19071592      -0.55036091       0.09141339      -0.84523373       1.01513019
C      -43.54948404       5.11614149      -4.49224043       0.00851864       0.58555292      -0.15662831      -2.25141888       0.73738023       2.14221044
N      -45.05990905      21.84565512      -0.87277412       0.46972780       0.84992983       0.79133306      -0.47651396       1.02698682       0.98231431
N      -42.81400448       4.32920454      -3.74825367      -0.42899270       0.35843161      -0.13613758       0.45793828       0.18804729       0.14409407
N      -41.91292779       5.18136402      -6.33710260       1.74056335      -0.00601900      -1.93060635       1.59658447      -0.33569613       0.18476116
O      -46.27363553       6.94627286      -8.13995766       0.76211724       1.00877063      -0.29169307      -0.39421709       0.03590286       0.33796791
O      -46.71549403       8.34707005      -6.60914910      -0.40718412      -0.44985411       0.65366967      -0.98294744       1.71972476       1.39065970
O      -44.61265864      21.07252509     -28.24214469      -1.20840392      -0.61680104      -1.10466887       1.00229391      -0.92333929      -0.86503557
O      -45.77892997      22.77096366      -0.48618998       0.39663485      -0.77399098      -0.37247167       0.03730015      -0.17664001      -0.46714310
O      -41.44170890       5.66755695      -7.41309067      -1.50847890      -0.19891619       0.51886277      -1.15218243      -0.97353847       2.01306359
O      -41.24847310       4.38959006      -5.64671409      -0.30766516      -0.47279634       0.22108291       0.84413373       0.57887015      -1.61103281
H      -42.94372662       6.34175880      -8.16840446       0.11768479      -0.34198452       0.01195238       2.41264378      -0.26982325      -1.22668535
H      -44.36627416       7.20682339      -8.47182110       0.15568998       0.36100691       0.19329673      -1.16289254       0.31642751      -0.68707654
H      -47.42274210      22.48983810      -1.82597650      -0.09273602       0.42295436      -0.21055332       1.14344772       0.51321243      -1.01743352
H      -47.64340813      23.08517137      -3.38114970       0.26720099       0.49652387       0.40359297      -0.31755268       0.19838265      -0.51848304
H      -41.94201679       4.29855164      -4.21253458      -0.00098369       0.05339225      -0.50166285       1.51384274      -1.16601177       0.45264875
H      -42.86747255       4.29274406     -30.95761957       0.06873883      -0.36541914      -0.11298045      -0.61026618      -0.05106444       0.51946650
C      -31.96910031      -7.08041951      25.04261974       0.56974849       1.80322292      -0.19858708      -0.15829272      -0.00929285       0.90107347
C      -30.97136566      -6.12698613      25.15583784       0.24989392      -0.60956482       0.76715103       0.09629639       2.00498104      -0.90339890
C      -33.10313127      -6.97666880      25.94718706       0.04429684       0.71963698       0.28245367       1.85655132       1.55557381      -1.02934115
N      -31.76729739      -8.10662115      24.24314689       0.70195850       0.21243200      -0.72833269      -0.55798650      -1.94792730      -0.92223923
C      -31.08575436      -4.96677316      25.99647467       1.79776800       1.26401216       0.05294161      -0.63287236      -2.43200971      -0.15632242
N      -29.73948540      -6.24500128      24.33796007      -0.51072550      -1.08971752       0.25958886      -1.30541698      -1.31480880       0.06503088
C      -32.37176990      -4.75358626      26.48640159      -1.04735994      -0.20871010       0.31448011       0.28352479       1.15128097       1.01075804
N      -30.07137333      -4.26962225      26.43143516      -0.86549532      -1.36108806       0.68911357       2.52857341       1.08369336      -1.08236272
C      -33.34003234      -5.73162012      26.59685035      -0.77423752      -0.41893196       1.72533867      -0.78710336      -0.72135753       0.71164789
N      -32.60040097      -3.49985240      27.22104928      -0.45947453      -0.23911532      -1.07733218      -1.49536553       0.20664642      -0.73527358
N      -34.41720672      -5.62485683      27.41738129       0.32401171      -0.33688010      -0.84001176       0.25924394       2.92564697      -0.44196938
N      -33.95323970      -8.03181017      26.05010021      -0.96507995      -0.51715666      -0.00428547      -1.87532725       0.22619268       1.28086283
O      -28.76126517      -6.27448087      25.01639862      -0.35535233       0.58341990      -0.73613252       2.44867762       0.72187253       1.19249062
O      -29.71458536      -6.46082748      23.13639935      -0.28374493       0.60465127       0.62271436      -1.00730821       0.32912894       0.00163840
O      -31.87276833      -3.05674074      28.07322837      -1.13108191       0.39877514      -0.88766292       1.31012827      -0.55170275       0.44163197
O      -33.61135251      -2.90452476      26.88383188       0.00975032      -0.14663388       0.60537891      -0.67737347      -0.00750720      -0.19504705
O      -33.80417480      -8.99304030      25.35708987       1.04068885      -0.50951697      -0.18759525       0.09757816      -2.24518796      -1.15915610
O      -34.91123546      -7.99024987      26.84990204       0.69795217       0.01571973       0.96482703       0.24553359      -0.27688093      -0.09141859
H      -32.32810723      -8.95818129      24.26465793      -0.16904473      -0.23252559       0.03280051       0.13024592       0.98571885       0.26153472
H      -31.00399723      -8.12637429      23.61411578       0.08874176       0.00634448       0.40120652       0.64695521       0.37007122      -0.38897726
H      -30.19946982      -3.59648382      27.17768263      -0.22748602      -0.11409935       0.48699776       0.14934504      -0.09584067      -0.47009782
H      -29.18582312      -4.34391696      25.88713169       0.23254443       0.22089697       0.08739540      -1.07398002       0.20787854       1.22937126
H      -34.95212948      -6.45604762      27.38332217       0.03232151       0.21869621       0.09441257      -1.13412404      -0.50686663       0.42529960
H      -34.87675617      -4.69610162      27.53351352       0.11436639      -0.28527317      -0.10134984       0.91589102      -1.38193722      -0.03786591
C      -21.79324986      -5.08885068       7.99783425       0.10710470       1.06794306       0.68977693      -0.67939679      -1.00490817      -0.42034646
C      -20.39918328      -5.13401119       7.85757633      -0.26116213       0.26049504       0.25382356       0.66970867       0.88712232       0.27350090
C      -22.35078361      -6.20744525       8.83309404      -0.05693811       0.62489167      -0.24724466       0.52706827       5.07025734      -2.42838245
N      -22.54313740      -4.16113957       7.32918463       0.06589993      -0.59777695      -1.23207772      -0.10141904      -1.35036200       0.98770472
C      -19.51138566      10.38602643      10.41097903      -0.75164200       0.02594540       1.93602333       1.14173291       0.96203526       0.93245114
N      -19.87064699      -4.24269697       6.83845832      -0.56051522       0.61948173       0.38948229       0.06706771      -1.03675533      -1.75254731
C      -20.15289079       9.30440653      11.17597148      -0.21852275      -0.02913655       0.46609241       1.18383322       0.31212663      -0.71187150
N      -18.21127736      10.88423833      10.58813543       1.09273772      -0.46737098      -1.24608597      -4.59021135      -3.85793233       1.16155596
C      -21.53443686      -7.11745628       9.49236157       0.02957622      -1.56769815       1.65942197      -2.01508684       0.85529377       1.90367765
N      -19.37051787       8.43517284      11.95994615      -0.89899540      -0.04802917       0.43207269       3.60306902      -3.12264866       0.32756234
N      -22.19284645      -7.93836831      10.36512914      -0.70298412      -0.49280641      -0.43328544       1.39236959      -1.55355675      -1.06975347
N      -23.67775615      -5.95133406       9.21758593       1.22028012       1.53508060      -0.03523904      -2.62951671       0.51415366      -0.67182810
O      -18.83076010      -3.63310807       6.92477613      -0.88826086      -0.47756887       0.18162041       0.53384945       0.28149766       1.20287055
O      -20.47373629      -4.24833884       5.75341402       1.32531984      -1.29552783      -1.25593940      -0.45719429       0.36637131       0.77905343
O      -18.10574052       8.59124080     -16.29157048       0.15090420      -1.10061358      -0.40664750      -2.50393287       0.56611224       0.32838409
O      -19.80051261       7.39977918      12.53933630      -0.70539316      -0.62318605       0.64658263       0.10361712       2.61939748      -1.17884412
O      -24.26724627      -6.89186466       9.72280035       0.68608547       0.85446116       1.10925281      -1.43343399       0.12839365       0.41043320
O      -24.30592276      -4.86768013       8.99339255      -1.58840710       2.14718860      -1.16972395       1.80299942      -2.01187702       0.53375533
H      -23.54524886      -4.18851618       7.55476809      -0.11160926      -0.22341223      -0.08503038       0.77345979       0.15009859      -0.13474144
H      -22.19103283      -3.60962558       6.55518840      -0.24311229      -0.06018057       0.42468969       0.01144367      -0.41925293       0.64881949
H      -17.61020514      10.36401766      11.18975424       0.23138464       0.38367153      -0.15858213       0.37710911      -0.30165948       0.06988488
H      -17.98760387      11.62642840      10.04199060      -0.38718359       0.17756644      -0.33376468       1.07790329       2.30735676      -1.56675349
H      -23.19623973      -8.04699923      10.23278543       0.53706140       0.25064690       0.28839523       0.64145950       0.22093658      -0.16924207
H      -21.68459374      -8.80388468     -17.77741225      -0.26553020       0.16200881       0.50575018       0.11073960      -0.20116210       1.05599932
C       -7.81820024       9.29207642      -0.57136738      -0.05253524      -0.89613338       1.29212045      -1.10471502       1.18582303       1.42995366
C       -8.68812234      10.45529624      -0.86759893      -1.19443440       0.35954956       1.47876009       3.30156823      -1.53160737       2.31498255
C       -7.02484541       9.28131108       0.60753741      -1.05696229       0.11107846      -1.29204186      -0.19319855       0.71316444       0.08110786
N       -7.98834008       8.27109223      -1.34968265      -0.12880857       1.64444058      -0.18801800      -1.07244885      -0.91856229      -0.78143631
C       -8.35315037      11.68497469      -0.18990330       0.97497362       1.10152279       0.05757299       0.52987796      -1.31825910       0.54546038
N       -9.61340226      10.40087760      -1.90087709      -0.29287912       0.24988455      -0.58586933      -2.34770735       1.25878117      -0.62971720
C       -7.31485708      11.75702580       0.88248712      -1.18917616      -0.11963549       0.52142756      -0.99705599      -2.05456149      -1.63060361
N       -9.02584927      12.72987768      -0.49145505      -1.15444250       0.23488379      -1.57072046      -0.56281099       2.41067358      -1.59623020
C       -6.77416430      10.49778402       1.33375438      -0.03855421      -0.44345356      -0.25964082       0.99323759      -0.74289767       0.62283485
N       -6.99410764      12.97370212       1.47767996       0.99269650      -0.94845956      -0.58623770      -3.43497643       3.34239425      -0.42714525
N       -6.00462534      10.53000845       2.43263379      -1.05617391      -0.46718767       0.17391530      -2.18341722       5.39167190      -2.36824830
N       -6.38194847       8.06755556       1.05987138      -0.00936588       0.19855853      -0.32880913       1.89360738      -0.83131230      -2.96750222
O       -9.83482624      11.48825202      -2.44116736       1.37036125      -0.78929377       0.79063377      -0.37043291      -0.86077254      -0.84455028
O      -10.31774081       9.39899511      -2.18691641       0.88157024      -0.58340218       0.72755373       1.89095308       0.75217356       0.59418813
O       -7.80013008      13.95700570       1.29845718      -0.21703761      -0.31270445      -0.12846310       1.50157539      -1.53110838      -0.30875551
O       -6.05547299      13.18209995       2.21024467      -0.40740759       1.16767066      -0.04454712       1.59043145      -1.17657602       0.66377878
O       -5.98988564       7.99543134       2.19082810      -0.99569183      -0.46686267      -0.67729389      -0.13336549      -0.04052874       1.36256164
O       -6.05178428       7.17904895       0.20710243      -1.00665513       0.28233844      -0.69027596      -1.63925342       1.54822938       1.06087285
H       -7.60518474       7.34908082      -1.15784488       0.09791954       0.09086571      -0.14091557       0.18304217       0.49802046       0.09557230
H       -8.89691457       8.42159361      -1.79512143       0.08088799       0.20476422       0.40552271       0.40990587      -1.45026244      -0.69892598
H       -8.60934260      13.58585986      -0.21388567       0.03102051      -0.37342083       0.17534888      -0.16986777       0.85860478       1.07892624
H       -9.55310895      12.80397049      -1.35479132      -0.11034052       0.30530447      -0.11302112      -0.00906528      -0.64127147       0.28440479
H       -5.54574655       9.84016160       2.87257282      -0.22716960      -0.12517645      -0.18559707       1.51259239      -3.15809798       1.23848760
H       -5.82853921      11.53903424       2.64031652      -0.63165044       0.01589949       0.26288193       0.12186184      -1.60026486       0.63946188
C      -21.61296016      33.79652588      35.10596590       0.71070990       0.37568013      -0.65007055      -1.36461732       1.12163707      -0.42491038
C      -21.96040101      34.24994934      33.78601756       1.44826899       0.59913124      -0.49711338       0.04447350       0.12389508      -0.99015280
C      -21.64282042      32.39854740      35.32249538      -0.03463271       0.37718751      -1.23972169      -0.32008342      -1.20255602       1.18782502
N      -21.55371505      34.69490283      36.10259276      -0.49288753       0.38803761       0.91730210       0.91885841      -0.82602915       0.28165741
C      -22.17311063      33.30211611      32.68827077       1.05140655       0.56647712      -0.32427611       0.53042012       0.24613124       1.88416609
N      -22.20821179      35.71821877      33.53461605       1.23887968      -0.18246142       0.61710727      -0.19049110      -2.36964784      -0.64955911
C      -21.92034630      31.90575325      32.91380008       0.30622659       1.37362525       1.15768033       0.16360031      -0.13061239       0.73957228
N      -22.66376974      33.65122397      31.54551587       0.00998131       0.73632937      -0.07342624      -0.27681861      -1.72399063      -1.53184243
C      -21.96089143      31.45398023      34.26289720       0.47174223       0.82899693       0.05766672       0.13314918       0.11232291       0.52489696
N      -21.91750343      30.91192086      31.84726470       0.97503618       0.77199604      -1.13379715      -0.74695100      -0.87551886       0.15668716
N      -22.36929723      30.20451027      34.49996620       0.03667024       0.25198514       1.44467776       0.82936823       1.13263210       2.03058138
N      -21.58779824      31.92306325      36.75560644      -0.66216125      -1.32753215       0.36844909       2.00753361       5.30074293      -1.03268037
O      -22.16078191      36.48238858      34.45994631       2.08613429       0.30031328      -0.66990976       0.45656373       0.66550991       0.92281802
O      -22.49127122      36.09171376      32.40428099       0.14639531      -0.58520042       1.90360216       0.72305258      -0.24322953      -0.35871486
O      -21.62432105      29.72465920       3.83651696       0.48245080       0.15441986      -1.30559120       0.22817955       0.96904871       1.17186267
O      -22.28348874      31.22747555      30.73458762      -1.22494440      -0.14143631       1.70024607      -0.10776430       1.06134469      -1.04743518
O      -21.92117605      30.85582838      37.05206554       1.24176816       0.09887905      -0.36867238      -1.88220655      -5.44284125       0.37905766
O      -21.15155373      32.68387327      37.65545686       0.57254150      -0.14098973       0.53375504      -0.12436123       0.00312544      -1.11282262
H      -21.40615463      34.34132480      37.04447135      -0.15592206       0.14295670       0.20972076       0.27961059       0.04173554      -0.31948939
H      -21.23009853      35.61393247      35.86320265       0.01539641      -0.16161586      -0.04261674      -0.48397968       0.15843145       0.08234392
H      -22.72248439      32.91640026      30.85640888       0.18037540      -0.27970500       0.34937662      -0.07759511      -0.22648606      -0.00873033
H      -22.61346134      34.53658867      31.19057226       0.03008600       0.00362380       0.15011158      -0.02680820       2.70021904      -0.35609198
H      -22.28099808      29.86278925      35.44419162      -0.40527027      -0.32464584       0.20136854      -0.10553428      -0.05450510      -0.23047860
H      -22.40385836      29.58784735       5.54833336      -0.15751415       0.19407977       0.13893520      -0.00090731      -1.09663624      -1.24939076
C      -58.53930245      25.59208104      31.93509680      -0.25840074       0.24029360       0.74222144      -1.13137492      -1.06794016      -0.67165096
C      -58.38018139      25.13684428      30.56769795       0.07252611      -0.15761733      -0.87559555       0.05678592      -0.45075183       1.10611843
C      -57.38255015      26.05829574      32.49256919      -0.60925450       0.54711941      -1.14050126       3.53422925       0.71383521      -0.66968924
N      -59.71632500      25.38469911      32.61607348       1.19762105       0.20317817      -1.09931553      -0.99895668       0.33569070      -1.44868406
C      -57.17766405      25.06243614      29.84318988       1.20510593       0.18876514       0.34959491       0.17198387       0.81069248      -0.61275323
N      -59.55678815      24.80652793      29.86854119       1.44585755      -0.36562929      -0.19831487       0.24075033       0.04723398      -2.15969556
C      -56.00324714      25.59234959      30.49929830      -0.32082763      -0.58859924      -1.79404511      -2.46448605      -1.15518163      -2.00487114
N      -57.18416098      24.75782808      28.48643431       0.65424309       0.06099758      -0.06206483       1.46267903      -0.21387921       1.53994621
C      -56.07606330      26.14256808      31.74597897       0.40497323      -0.97989687       0.58547863      -0.40859191       0.19073098       1.68216204
N      -54.90750789      25.88640995      29.64127311      -0.55058380      -0.35900945      -1.90050019       1.33125200      -1.17430013      -1.03851981
N      -54.94325799      26.66782291      32.28058128      -0.68526078       0.88708246       0.29228335      -3.01250427      -0.38226083       3.20973381
N      -57.43003564      26.52804063      33.80606327       1.07894599       0.39210193      -0.74964065       0.59125905       0.67680681       0.47768493
O      -59.47756883      23.96813164      28.96198128      -1.18199122       0.28101956       0.12957147      -0.91215044      -0.38168026       0.61938402
O      -60.54344008      25.48795330      30.03313275       0.31232612      -1.16847724       0.69090836      -1.07200372      -0.11086301       0.39801792
O      -54.41156661      24.99987255      28.90680822       0.04143857      -0.74349519       0.95554268      -0.82091872       0.30079221       0.63209856
O      -54.47034949      26.99794155      29.65841341      -0.66537313       0.52275646      -0.90496672       0.52665790       1.24413264       0.06238873
O      -56.45431450      26.85421011      34.44008376       0.84108382      -0.47506847       0.31491093       2.94062481       0.06240414       0.07443640
O      -58.48534391      26.67633004      34.33837972      -0.19073909      -1.29587905      -1.79706425      -3.53560836       0.05700800       1.07154666
H      -60.00077150      25.98074844      33.44578426      -0.12910163       0.25797948      -0.22271357       0.99618094      -1.27611506      -1.72521652
H      -60.45943264      25.07962944      31.93358463      -0.07606702       0.02912998       0.12712422       0.92814332       0.76050268       1.78197552
H      -56.24128714      24.57588997      28.13651752      -0.03166770      -0.15772502       0.05468114      -0.62211374      -0.00717776       0.11281576