1296
Lattice="-64.02306349603121 -25.22571734706499 32.04383038467165 0.0 15.700590036735967 2.5842038497293127 0.0 0.0 -19.319464908496617" Properties=species:S:1:pos:R:3:momenta:R:3:forces:R:3 energy=-1487780.7667064236 free_energy=-1487780.7667064236 stress="0.004971102966760311 -0.00024717712754548997 -0.0020495697981885593 -0.00024717712754548997 0.004218638451700487 0.0023651593952269388 -0.0020495697981885593 0.0023651593952269388 0.007299466332956786" pbc="T T T"
C      -44.62354119     -24.45766212      15.22653075       0.17868355      -0.91981888       0.73649109       2.00607795      -0.46825751      -1.28237333
C      -43.52032812     -24.12086699      14.28433642       1.58921882       0.63967148      -0.67305974      -0.00500115      -1.68972421      -0.22270146
C      -45.06474549     -25.83693781      15.13418098       0.39586448       1.30747403       0.44253539      -0.63978776      -0.15412267       0.81985375
N      -44.99534178     -23.58163750      16.15634483       0.15899399      -0.77149500       0.93008727      -1.51885901       1.59835448      -0.24499024
C      -42.81707354      -9.51225483      16.14609255      -0.87113411       0.82240775      -0.70022862       0.48892716       1.69129630      -0.94225700
N      -43.13415813     -22.75446280      13.99337957       1.48265505       1.42439859      -0.23262459      -0.21970016       0.28493437      -0.01050929
C      -43.05461861     -10.90472798      16.38548402      -1.18094059       0.77334408       1.22317946       0.04074074       1.31474690       0.10391466
N      -41.95443511      -9.26378384      15.18926342      -1.42473590      -0.51279889      -0.34316601      -0.01114218      -1.89622663      -0.36647493
C      -44.21604477     -26.87964936      14.53125981      -0.35443066       0.10366751       0.04552003      -0.15144025      -2.37176335       2.14348703
N      -42.09564169     -11.89194633      15.94383565      -0.03651743       0.21054570       1.47286638       1.58421849      -0.03780939      -1.05359010
N      -44.33358677     -28.17921803      14.88879031       1.50421144      -0.32060211       0.28486212      -3.80676743       1.49508317       1.44105867
N      -46.23828697     -26.19222661      15.96021882       1.46138200      -0.04704182       1.16697900      -0.54757839      -1.00573144       1.18745750
O      -43.92716006     -21.88889084      14.38502042      -0.37317453       0.60390109       0.16729786       0.40721323      -0.08393798      -0.01035460
O      -42.09691803     -22.44240336      13.37896532      -1.87010144      -0.60854672       0.95956069      -1.24028789      -1.11068627       0.52056772
O      -41.05989860     -11.53504451      -4.03301922       1.60445120       0.79298435       0.94894361      -2.22502124      -1.00038883       1.34763590
O      -42.25747080     -13.09626967      16.17443251      -1.60779249       0.78866794       0.54108480      -0.09298507       1.14526683      -0.20349851
O      -46.69262482     -27.39168099      16.02835333      -0.20435111       0.73678396      -0.87302876       1.58713896       3.01522193      -0.73998938
O      -46.77938236     -25.28746496      16.66521052       1.47699991      -0.00320545       1.04229638       0.82378424      -1.98370217      -1.82885763
H      -45.83103043     -23.72246425      16.74732524       0.18653915       0.09744773      -0.33919770       0.96351432      -0.65250932      -0.79004989
H      -44.94125464     -22.59042851      15.87786087       0.22771315       0.04925269       0.15168033       0.83175391      -0.85860771       0.12733555
H      -41.52216056     -10.07097997      14.69970514       0.09649446       0.24651680       0.00426663      -0.44337233       0.77924250       0.88873885
H      -41.69907055      -8.40330084      14.84639137       0.11090581       0.14313135       0.26995584       0.12676158       2.51572845      -0.08569471
H      -45.19700923     -28.49560814      15.39656528       0.34970657      -0.19911315      -0.01091420       1.31018924       0.76199008      -0.80334855
H      -43.67965298     -28.82462854      -4.77588617      -0.02262126       0.37917894      -0.03230860       0.74351086      -0.91833216      -0.43388984
C      -64.24064470     -20.12608709       7.58270763      -0.97853428      -0.26830296      -0.76723138      -0.09016805       0.11166447      -0.14107500
C      -65.07662580     -21.00341267       8.38330132      -0.40037077      -0.11292725      -0.70002976       1.35002337      -0.00316237      -3.93383083
C      -63.81564380     -18.91845881       8.20197484       0.12791512      -1.50808789       0.57324718       0.25198583      -2.11745337      -0.44671810
N      -63.88781435     -20.27851560       6.31880841       0.11151561      -1.01575000      -0.80863343      -1.64341096      -2.80094342      -0.68596166
C      -65.20607903     -20.71606956       9.74890591       0.79836283      -0.71973170      -0.22175981      -0.65659027      -1.08310570       0.50948842
N      -65.69994899     -22.15716538       7.63945917       0.77652658       1.60994872       0.56729639       0.63319953       0.11755862       0.08388506
C      -64.39986805     -19.72574983      10.36960367      -0.41273933      -0.94189503       0.29873910      -1.54040965       0.98482982       0.90833903
N      -66.06085098     -21.46823860      10.40772406       0.23777923      -0.20760399      -0.81109933      -0.09633891       0.10893638       1.52480557
C      -63.89082407     -18.67385368       9.53855744       0.93672409       0.90221486      -1.16984943       0.74795003       0.38143881       1.51919117
N      -64.67052722     -19.38010215      11.77180816       0.79797178       0.19582288       0.34209157       0.98500762      -0.76677819      -1.11784027
N      -63.36083651     -17.56410970      10.02435209      -0.80584147       0.07374074       1.08428865       0.09273597       0.45695861       0.80775861
N      -63.18443583     -17.94132206       7.43517399      -0.78088320       0.10278970      -0.58672333      -0.17078236       1.11291592      -4.37559739
O      -65.39146164     -22.49313906       6.47172569       1.10903954       1.52813821       0.19479746      -0.19271018       1.52835213       2.08712066
O      -66.52791113     -22.79866336       8.27455289      -0.16541830      -1.30925618      -0.22077654      -0.23617643      -0.33262985      -0.22907889
O      -65.27666065     -20.12141362      12.53303793       0.20129995       0.10883534       0.38261251      -0.17006221       0.04320243      -0.45417673
O      -64.12059835     -18.35290326      12.14903862       2.27775550      -0.65411229       0.29519001      -0.47146613       0.16671702       1.67782430
O      -62.34147554     -18.21913272       6.55127500       0.90300036       1.23701685       0.48833847      -0.56806621       0.07928496       2.07678563
O      -63.72025646     -16.84053737       7.44846457       2.48405277      -0.32106078       0.38369420       0.41422396       0.89456581       0.63396718
H      -64.17217734     -21.12259494       5.75968493      -0.19277200      -0.04205507      -0.13484088       0.15359031       1.15903783       1.31857065
H      -63.23367814     -19.65670737       5.92627044      -0.20085733       0.03113387      -0.10995781       0.96169852       0.79704844      -0.42761295
H      -66.16814950     -21.46224401      11.40499063      -0.21602220       0.48112728       0.07384677       0.23113785       0.60496635       0.13387278
H      -66.58250172     -22.10756350       9.86851853      -0.36477422      -0.46201319       0.02059394      -0.65368147      -0.58681294      -0.73028616
H      -62.97051933     -16.81209787       9.49008280      -0.00081211      -0.05042695       0.23629260      -0.12080176      -0.17837150      -0.27929203
H      -63.43376046     -17.47431078      11.03617030       0.06628086       0.15097426      -0.19489528       0.21257751       0.12080176      -0.48447146
C      -58.87435197     -29.20395169      -7.90852338      -0.94227590       0.11547762       0.15506837       3.68030141       1.52824462      -2.27833972
C      -58.38141155     -28.88592275      -6.60405205       0.56171779       1.40427135       0.08577899      -0.42216880       0.87164585       1.34755659
C      -59.92657122     -30.01495705      -8.08166370      -0.55453355       0.20753172       0.40206711      -3.33796872      -2.77089717      -0.33452057
N      -58.10910466     -28.80352892      -8.96715327       0.70865205      -0.86211118       1.41476823       0.54749765       0.33598190       0.38809917
C      -59.23215725     -13.43260510      -2.92749485      -0.60909672       0.09309312       0.51160279      -1.45828025       1.50252302       3.05250041
N      -57.26697281     -28.02750432      -6.40721394       0.07785181       0.79128741       1.07528211       2.45727265       0.64971663       1.39569103
C      -60.45699297     -14.11581143      -3.16796005      -0.21394827       1.60360663      -0.38713170       1.40324098       1.94922862       2.41113131
N      -59.06493330     -12.88221400      -1.60910072      -0.58182348      -0.35389431      -0.08024214       2.25248473      -1.29096054      -2.66162696
C      -60.68245542     -30.48465604      -6.94548456       1.45040250       0.23791054       0.26043177       0.78233663       0.99909527       0.21468136
N      -61.35254261     -14.28773601      -1.99856277      -1.12403867      -0.22457402       1.17019821      -0.73089285       2.71589353       1.26662497
N      -61.55178320     -31.43319135      -6.97044835      -0.18381030       1.41863124       0.02777692      -2.80997828      -3.26844954      -1.57442407
N      -60.33601870     -30.50066988      -9.46106128       0.08117750       0.62990487      -0.49646255       1.66628763       2.41748730       2.75228016
O      -56.73352361     -27.81307404      -5.26022072      -0.31553212       0.91502328       0.28965503      -2.03447234      -1.25101127      -2.64070539
O      -56.71939743     -27.50911044      -7.40968981       0.00576474      -0.97363395      -1.16379711      -0.08568015       0.07475594       1.28356905
O      -61.78433361     -15.39754439     -21.17521951      -0.13218638      -0.05862773       0.30152145      -0.53725578      -0.59004339       0.80157769
O      -61.70063457     -13.29948295      -1.19961603      -1.25237105       0.10950501      -0.44083816       1.53879244      -3.28486653      -3.17522356
O      -60.01421449     -29.76813373     -10.36077021       0.33253732       0.46643298       0.36954472      -0.04279309       0.07580305      -1.42890205
O      -60.94388068     -31.51914657      -9.56769196       0.62838683       1.72992130       0.61143620      -0.97828693      -1.79258811      -0.39564426
H      -58.23545589     -28.99015232      -9.94706590      -0.01505707      -0.33275073      -0.05712500      -0.82490895      -0.31910500       0.66313184
H      -57.34689452     -28.17481311      -8.71409887       0.23638641      -0.13309036       0.17936879      -0.44955105      -0.38036604      -0.29971585
H      -59.80546078     -13.05552588      -0.96697624      -0.14838599      -0.00721919      -0.34069483      -0.12342148      -0.05822410       0.31784152
H      -58.09157165     -12.96701091      -1.23095607       0.12410699      -0.40853409       0.34065962      -1.52748879       0.49571686      -0.74200431
H      -61.67586404     -31.86795324      -7.88048383       0.43136140       0.26245184       0.28448890      -0.09954420      -0.00135204       0.35151868
H      -62.08796136     -31.87312833     -25.51495776       0.14234949      -0.38772384      -0.10285257       1.18274309       1.24820538      -0.67371781
C      -43.97515441     -19.65389297      18.77825001       0.78195504      -1.76978627      -0.06875815       0.87841028      -2.72553159       0.56234370
C      -43.05519405     -20.56820940      19.49285190      -1.34810832       0.20826761      -0.15691686      -0.15121119       0.35588434      -2.69623250
C      -44.84636487     -18.87526922      19.51624203       1.66728587       0.90017600      -0.40972691      -2.25127939       2.05346212      -0.58189987
N      -43.98828167     -19.77236501      17.48423398      -0.05931373       0.98109878       0.17320225       0.35885034      -0.12897999      -2.27988342
C      -42.85204971     -20.50274305      20.80887983      -1.04654623      -0.22926037      -1.73794810      -1.01000892       1.08999373       3.55684579
N      -42.24259200     -21.56206354      18.78484326      -0.19353869      -0.64409221      -0.97950734      -1.26656207       1.83528830      -0.76415953
C      -43.77821349     -19.53056857      21.47376436       0.52475217       0.25013181      -0.51765577       1.45082888      -0.76218718       2.44122149
N      -42.01130745     -21.23800515      21.54495434       0.00665016      -1.52331166       0.67320580       0.12279296       0.48058764       1.50947391
C      -44.78170419     -18.72008288      20.95561756       0.91895231       1.29738602       0.07758329       1.56101814      -1.12138939      -2.77118591
N      -43.61961798     -19.46883868      22.88714337       0.45061906       0.50733480      -0.38854656       0.87271144      -0.56943046       3.56731059
N      -45.55713937     -17.90546952      21.60395183      -0.17821418      -1.39840493      -0.35888928       0.01223833       0.19087900       2.71943421
N      -45.87378357     -18.07271545      18.77992259      -0.07403580       0.83279583       0.44342466       1.53677927      -1.85307102      -2.09357659
O      -42.76406270     -22.11054771      17.82182370      -0.15277910       0.57982795       0.03543123       0.53980064      -0.66348212       0.12736728
O      -41.10038809     -21.69797455      19.14729481      -0.11698944       2.01492816       1.38170538       0.73332746      -0.87358943      -0.09437692
O      -43.93615797     -18.48227588      23.60691166      -1.93025249       0.00858470       1.02385663       0.15806816      -1.47589508      -1.96396774
O      -43.11139980     -20.47681748      23.45935386      -0.19033971      -1.75980224      -0.40074927      -1.67818579       2.29702731       0.22464673
O      -46.36845231     -17.15375703      19.40202011       1.24575955       1.73943065       1.25083494      -0.97116809       0.45534147      -1.36094162
O      -46.13406700     -18.34964966      17.54863038       0.60420113      -0.92870318       2.03841100       0.18479199       1.03561536       3.73935998
H      -44.56466197     -19.24176495      16.85080585      -0.35394148      -0.28769797      -0.01305998      -0.14391921       0.35455584       0.67374005
H      -43.34493201     -20.39486160      17.02661527       0.14633569       0.05112494       0.24566313       0.00348297      -0.02420691       0.26488952
H      -41.98534743     -21.21200449      22.59090370       0.06995137       0.22161741       0.17741285      -0.73834613       0.44208546      -1.90134677
H      -41.33034526     -21.85380488      21.22095433      -0.06097931      -0.05328518      -0.13720267       0.67496284      -0.57878980      -1.71104695
H      -46.28133691     -17.46220114      21.13114722      -0.29309948      -0.07028093      -0.24650859      -1.12644297       0.80072580      -0.94226836
H      -45.49167480     -17.75218720      22.60247052       0.16238437       0.12269515      -0.00188139       0.47416767      -0.46049385      -0.37609251
C      -20.90033263      -6.83601669      12.09190430      -0.52386038      -0.17707564       0.57628331       0.33703173       1.13969746      -1.07230691
C      -20.11652281      -7.54326630      13.03385564       0.44228033       0.48261662       0.66938367       0.15848640      -1.35613474      -2.97223943
C      -22.06212733      -6.23350870      12.59373027      -0.72629523       0.41932863      -0.09745700      -1.38742309       0.92183441      -0.54302447
N      -20.50683308      -6.60516463      10.80500995       0.01524455      -0.39576382      -2.60717887      -0.00473211      -0.56088999       0.66987636
C      -20.57270965       7.86220005      16.90457605      -0.42007802       1.15293857       0.97524296       1.08305906      -0.52314580      -0.87919271
N      -18.93193717      -8.34019650      12.38395552       1.02903585      -0.39879100       1.19810972      -0.84584457       1.80811991       1.32979929
C      -21.68908520       8.54666266      17.40216388       0.65516333       0.47899631      -0.72837160      -0.59257710       1.53376704       0.85749352
N      -19.98040772       6.92141202      17.62781874      -0.13697265       0.18540637      -1.52776534       2.43965009      -0.51219994      -3.26019113
C      -22.44133472      -6.26217237      13.97604754       0.69921809       0.50531564       0.06383135      -0.47867951       0.02789129      -0.81985819
N      -21.88280258       8.57551328      18.84820817      -0.94915744      -0.27788637       0.39131841       0.06695905      -0.64531426      -1.18351890
N      -23.47264816      -5.46883276      14.33033393      -0.55021494       0.29857268       2.22470227      -0.45370237      -0.20023320       2.73139603
N      -22.85984252      -5.36351466      11.60141745      -1.04210485       0.67048226      -1.20282364       1.82099454      -1.84171192       3.95824972
O      -17.96589657      -8.27096922      13.13662495       0.02948742      -0.79895921       0.01342033       0.14376141      -1.21319597      -1.00519754
O      -18.95700102      -8.82025058      11.24819149       1.12102740      -0.63136038      -0.46474558       0.08759444       0.42722184       1.93849027
O      -21.13492683       8.06674677       0.32608932      -1.06642944      -0.76696243       0.82696674       1.47194589      -0.93011833      -0.03530706
O      -22.87542861       9.10866910      19.26025710      -1.31148041      -0.35161796      -0.48945281      -2.64091641       1.95170757       0.26941531
O      -23.98920409      -5.05567220      11.85840153      -0.11417764      -1.19426015      -1.15492901      -1.89669426       0.29409865      -0.06403825
O      -22.25880394      -4.95611518      10.67323376      -1.77505927      -0.25616627      -0.27087657       0.43917787       1.73482110      -2.97975911
H      -21.02705866      -6.03621895      10.13820538      -0.01041184      -0.58589069      -0.18104119       0.40100925      -0.45599476       0.97364206
H      -19.75925231      -7.15045539      10.46085571      -0.04942452       0.06865748       0.08768569       0.53461556      -0.58148463      -0.27658155
H      -20.46779023       6.67868337      18.39987956      -0.00239566       0.07362144      -0.05499562      -0.98038022      -1.22691933       2.96977119
H      -19.29110770       6.29229671      17.17016620       0.09409284      -0.56060788      -0.00597828      -1.01305272       0.97977020       0.94396787
H      -24.03595024      -5.01969202      13.61348747       0.18687249       0.17469353      -0.06480474       0.44002294      -0.25025006       0.51745616
H      -23.76706448      -5.40210251      -3.97431189       0.13959593       0.02880137       0.21238466       0.87589066      -0.34824876      -2.06456377
C        6.74601319       4.83878592     -14.31261851      -0.10673126      -0.75045898       1.72661231      -2.16052955       1.21300348      -0.63271201
C        5.41876771       5.46874673     -14.54077747       0.18929270       0.73207460       1.33972147       1.44366834       0.82802591       0.33259562
C        7.77875581       5.73017812     -13.88534127      -0.19105854      -0.33666455       1.61731522       1.57318404       0.93540529      -0.31898377
N        6.84786998       3.56033320     -14.53130991      -0.28156208      -0.02002299      -0.23822230       0.98667993      -0.99367988       0.12526354
C        5.27817369       6.84411017     -14.04353640       0.96946553      -0.28453066       0.05724094      -0.05157429      -1.55028315      -1.18428714
N        4.34905423       4.76898174     -15.28934217      -0.96170433      -0.85334652       0.47137303       0.81101728      -0.53734968       0.06023656
C        6.32683045       7.72856551     -13.76365739      -1.03373996       0.21833668      -0.73145769       2.46666274      -2.94639506      -0.83994096
N        4.08613041       7.32137721     -13.96786899       0.50916463       0.58287945       0.46738800      -4.98010472      -1.67425588      -0.28710858
C        7.67750018       7.15042302     -13.88747700      -1.60645862       0.52597136      -0.49099310       0.81535198       2.54386991       3.24367858
N        5.96226099       8.92786803     -13.14847024      -1.16209686      -0.22112959      -0.31063010      -0.10259080       1.98909065      -0.24005114
N        8.74268774       7.99856714     -13.54595152      -0.88275762      -1.11620737       0.64572469      -0.74138816      -1.73614633      -0.68390991
N        9.09128394       5.19394095     -13.61504941       0.55804469       0.33341443      -0.68396419       0.77603994      -4.72518183      -0.78064869
O        4.72360167       3.75006153     -15.88023062       0.53729270      -1.10746540       0.58165659      -0.14223905       0.12589611      -0.02582036
O        3.17490084       5.11087075     -15.37560594      -0.16233651      -1.05614583       0.41849488       0.67820443       0.99039588       0.85140675
O        6.62680115       9.95548675     -13.33252778       0.76580767       0.29155028      -0.49606809       0.09801918      -1.11388654       0.39846570
O        4.90232890       8.94401033     -12.51842012       0.81708583      -0.25201953      -1.40122291       1.15242396       1.15539620       0.83588229
O       10.15541013       5.75827197     -13.58969435       0.64222913      -1.65743072       1.69964733      -0.34191698       2.21073308       0.19453748
O        9.14562593       3.92625498     -13.50663318       1.50986069       0.08338386       0.44634835      -0.98356733       1.61068242       0.14504839
H        7.65808631       2.97032668     -14.42611829      -0.11793783       0.28070128       0.19433210       0.34406953       0.82507670       0.43415401
H        6.04398623       3.14348650     -14.92392068       0.43440312       0.40450972       0.21259070      -0.90837351      -0.38245279      -0.47605214
H        3.79578000       8.07414648     -13.38622269       0.20719217       0.29447807      -0.11716590       0.60618862       0.75981100       0.00663688
H        3.30906298       6.65142534     -14.01164981       0.07447771       0.10092704      -0.14105668       0.74519766       0.12743131      -0.73875200
H        9.72770432       7.78790396     -13.27033554       0.11724159       0.07010324      -0.21740245      -1.77627743      -0.59531575      -0.83275621
H        8.48542315       8.95161516     -13.49607872      -0.43082630      -0.03796824      -0.37665722      -0.29170461       0.87295842       0.02426944
C      -41.99496131      20.93017007      26.48624835      -0.23879821      -0.11218515       0.52523689       2.32459663       0.78306650       1.81131714
C      -42.19492930      20.76094080      27.93238282       0.06630415      -0.49871059       0.90118937       0.23516116       0.05838475      -1.27407386
C      -40.63078922      21.32452442      26.08049757      -0.13651514       0.49459716       0.40161537      -0.17664427      -0.95792588       0.45497108
N      -42.90317469      20.83385078      25.54804934      -0.87701056       0.27999978       0.04312521      -0.56302272       0.58863446      -1.82781030
C      -40.99133377      20.60034450      28.75280112      -0.19080296       0.65192329      -1.42923764      -2.71847652      -0.06649195       2.92778596
N      -43.59368534      20.81806537      28.45332645      -1.04211056      -0.43239807      -0.07524677       3.03754516      -0.43016940       0.43473164
C      -39.72499006      20.67422685      28.23918856      -1.04487448      -0.65644704       0.34472552       1.46821668      -0.00928254      -0.87771977
N      -41.16869992      20.36627322      30.10694538       0.19938300       1.16249913      -1.31364771       0.31685859       0.37528042      -0.18899408
C      -39.48108532      21.15098576      26.93430567      -0.47734129      -0.32952729      -0.56680305      -0.43594413       0.50377204      -1.94448610
N      -38.51481074      20.46748343      29.04880950      -0.08692314       0.22597030       0.71099245       0.57109179      -0.09111150      -0.14921728
N      -38.23760572      21.43574733      26.47064903      -0.39473906       1.37718466      -0.80596463      -0.14804359      -0.05644950       0.31058147
N      -40.39316091      21.91709807      24.69405043      -1.03100726      -0.80476792      -0.24756351      -1.43724180      -0.35425254       4.30184118
O      -43.74133028      20.51277797      29.65043246       0.13385170      -0.69106978       0.22808136      -1.00637701       0.51692664      -1.52392085
O      -44.46465212      21.21573064      27.69192540      -2.06869919      -1.83837010      -1.12986165      -0.11414784      -0.45202659       0.65136787
O      -38.42530760      21.01025795      10.82582291       1.72576940      -0.00237155       0.39934074      -0.01930828      -0.83229523      -0.80227002
O      -37.59473366      19.81007383      28.51044360       0.11623320      -0.39215104      -0.29958727      -1.27716439       1.02046373       1.11251419
O      -40.97998786      21.42888695      23.75640429       0.19141806       1.76214327      -0.63331475       0.18851623       0.02176010      -1.34289001
O      -39.79275127      22.95598280      24.74922212      -0.37794649       1.68861888       0.46859099       1.07834061       0.52344704      -1.54687173
H      -42.47396024      21.12827480      24.62986714       0.09592581       0.00083693      -0.16189909      -1.69193043      -0.94425991       1.04466922
H      -43.90807457      20.71023379      25.74201517      -0.08460213      -0.39822476      -0.30028682       1.23790551       0.36037063      -0.13105158
H      -40.40674236      20.40305572      30.78980828       0.00974451       0.04931024       0.02663375      -0.26040186       0.10426347      -1.12270317
H      -42.06082192      20.63904313      30.49637795       0.00858781      -0.10193848      -0.07366727       0.17750628      -0.30728357      -0.31440104
H      -38.13591653      21.98640562      25.61945763      -0.28470113      -0.46613759       0.03142230       0.07125462      -0.42764945       0.78667480
H      -37.41283742      21.16100343       7.69393785      -0.00525877      -0.15256240      -0.04104769      -0.77145652       0.29077048      -0.62421245
C      -90.29088566     -25.47264848      30.49976060      -0.42698045       0.62927658      -0.42745036       0.08917600       0.22528867       0.72836809
C      -90.04954475     -24.12637171      30.87799315       0.33341495       0.03190206      -1.88208453       0.84543888      -0.07955477       0.47269009
C      -90.39614491     -25.73277910      29.10859619      -0.22873338      -0.65610944      -2.31741412      -0.76026239      -0.62321312      -1.00510795
N      -90.52806292     -26.45093628      31.41739124       0.94028084       0.63245184       0.54880756       0.78965889       1.67084610       0.42161875
C      -89.70948087     -23.15789380      29.88230934      -0.05118530       0.65743711      -1.91374157      -0.65814572      -0.11902936      -0.92189270
N      -89.88583331     -23.77069471      32.27686626       0.70455071       1.46772816      -0.88709690       0.08792644      -0.37531205       0.46825321
C      -90.08347426     -23.42452823      28.53470275      -1.70171590       1.86088163       0.30756222       1.91781310      -0.82360843       2.61002390
N      -89.13499423     -21.99537716      30.15249849       1.23497206       0.06251573      -0.52135500      -0.30899409      -1.30250750      -0.19524781
C      -90.48755314     -24.71384089      28.13430400      -0.24426900      -1.02822995      -0.41388954      -0.43523192       2.30193794       0.37404174
N      -89.81721313     -22.38181731      27.62702017      -0.74374043      -0.49529630       0.84313261      -4.04963453       4.50141468      -3.86172085
N      -90.96656876     -24.78378437      26.91099053      -0.42850484      -0.29773929       0.83095444       0.69460513      -4.05112300       1.14470417
N      -90.34605970     -27.06742814      28.59374612      -0.16069281      -0.44892455      -1.10289611       3.61026356      -2.86075293       1.68508895
O      -89.83319319     -22.58156346      32.60263589       0.34025085      -0.40384916       1.70950287      -0.15515657      -0.19249231      -0.49633424
O      -89.79933484     -24.64963833      33.13662454      -0.50884744      -0.13800289       1.44286814      -0.13624104       0.07809193      -0.65655265
O      -90.87448420     -21.95494569      27.00197831       0.77366277      -0.73972471      -0.35034903       0.73640372      -2.49940502       1.04076433
O      -88.86009514     -21.67413427      27.42561699      -1.58625605      -0.51794543      -0.09636545       1.97796938      -1.68083366       1.64627205
O      -90.59296558     -27.43263163      27.44050970      -2.16401620       0.55438640      -1.41685865      -0.84808197       1.58807167       0.88221621
O      -89.68621473     -27.88004485      29.35263167       1.12365408       0.82558047      -1.79923758      -2.16985285       1.17433928      -1.41211286
H      -90.79612888     -27.28315838      31.00708702      -0.17339330       0.13659770       0.11486444      -0.28281973      -1.83939887      -0.44989104
H      -90.01153917     -26.47924665      32.30158488       0.09925861       0.13145683      -0.08049953      -0.81486111       0.62039242      -0.74704708
H      -89.13038289     -21.26629153      29.52134063       0.17177777       0.23225310       0.09441562       0.34694005       1.36100862      -1.72450846