1296
Lattice="-46.276442182310596 3.458807589617285 25.192637840139724 0.0 15.294264065205246 9.749194127248112 0.0 0.0 -27.355539130754753" Properties=species:S:1:pos:R:3:momenta:R:3:forces:R:3 energy=-1487784.7331574971 free_energy=-1487784.7331574971 stress="0.0023546538118328552 0.0005988876781048264 -0.001796655047361888 0.0005988876781048264 0.005732510841058889 0.000773409263099328 -0.001796655047361888 0.000773409263099328 0.0051160113369978066" pbc="T T T"
C      -26.00115602       6.06102842       9.76263381       0.61609488      -0.43124287      -0.02948818      -0.24097144      -0.01429049       0.43745546
C      -26.92486023       6.15628817      10.87830267      -0.36465336      -0.74648142       0.06631374      -1.13599447       0.00524070       0.02568083
C      -26.49596410       5.93431604       8.40419072       1.01403063      -1.21369809      -0.54189632      -1.00246729       0.21251626       2.45785958
N      -24.69295905       6.00267477       9.96142596       0.15937551      -0.19280783       0.53030763      -0.82195798       0.35082184       1.38547919
C      -28.39639214      21.41225116      20.29659330       1.27831381       0.59291023      -1.04317484       1.90261036      -0.53656242       1.59368798
N      -26.44196045       6.11354139      12.29084814      -1.62320815      -0.39126039      -1.29827543      -0.51064841      -0.61859346       0.21727019
C      -28.70836659      21.90766553      18.99841751       0.48866476       0.15367398       0.76705671      -1.01912185      -1.78674039       0.43225378
N      -29.21367588      20.85400804      21.26870260      -0.30518247      -1.13846935      -0.10368193       1.85013266       2.20828628      -0.26598627
C      -27.85047951       6.34852829       8.13890146      -0.86172407       0.76587860      -0.66209948       2.12429464      -0.14964605      -0.61500322
N      -30.10721032      22.02340086      18.67532195       0.38078438      -0.69821733       0.56710597       0.85819639       0.16245203      -0.68216187
N      -28.12279584       6.57276464       6.86493026      -0.23012836       1.04149590       0.94583671       0.03068356       0.23646571      -0.66778611
N      -25.71635125       5.39041841       7.35703246      -1.56802489       1.56629844      -0.24664782       0.59435654       0.52973438      -3.41511254
O      -25.26582701       6.19706211      12.60570211      -0.97643547       0.12812145      -0.15896724       0.46250944       0.20108316      -1.71522380
O      -27.24085110       5.95641610      13.24911748       1.22161787      -0.84886153       0.16042606      -0.86130504       0.23034052      -1.39947666
O      -30.41236914      21.92359200      -9.86037238       1.63656806      -0.35547331      -1.87768805      -0.92654964       0.02890877       0.17018780
O      -30.90161971      22.24210479      19.55599976       0.56569286       0.15754334       0.94117485      -0.72536309       0.07076017       0.81192253
O      -24.52065715       5.69303990       7.12962084      -0.47108394      -0.70392808       0.28889987      -0.74993777      -0.25027148       1.86306344
O      -26.31729759       4.75965370       6.46401555       0.55459079       0.68313367      -0.17876526       0.36741146      -0.15730101       1.23179150
H      -24.19776185       5.89805967       9.14302268      -0.03049555       0.11736502      -0.00223022       1.80987559      -0.09543662      -1.65992736
H      -24.26048752       6.34372441      10.80964422       0.00874976      -0.12518170      -0.20825550      -0.09643700      -0.41409220       0.04244977
H      -30.21051783      20.96126088      21.17824006       0.23305549      -0.28929236       0.00961672      -0.01084386       0.27988568      -0.12511992
H      -28.74893711      21.11223871      22.19078332       0.02303642       0.25322536      -0.04015508      -1.07117575      -0.86119299      -0.94391447
H      -27.38746382       6.57232766       6.14667989      -0.24895190       0.17164083       0.12684182      -0.89846678      -0.10127396       0.74176918
H      -29.07083338       6.57850762     -20.81236378       0.08307686       0.09460768      -0.47716035      -0.14177679       0.36790337       0.13634921
C      -47.64391060       8.98141580       3.00446329       1.76803728       0.53227716      -0.31037325      -0.99554258      -0.55164421       0.80072357
C      -47.72355837       7.65592861       3.66313480      -0.25123922      -0.25369605      -0.51211519       0.55048447       1.90393646      -0.97700997
C      -48.62537547       9.94010797       3.40520962       0.39056927       0.20222131      -0.17792311      -0.03097564       1.52380295      -1.35003559
N      -46.74306905       9.27329143       2.06952481      -1.00634785       1.38168733      -0.81118414      -1.48801689      -0.54731865       1.40238008
C      -48.64510804       7.46952169       4.74987061       0.94478286       0.14456546      -0.07643652       2.27667880      -1.24689489      -0.42016946
N      -46.71948212       6.66225720       3.28066029       0.86185477      -1.66992473       0.27060294      -1.15245559       0.04769398      -1.23604460
C      -49.42521856       8.57131906       5.14514641       0.06730543       0.50711262      -1.35400269      -1.20416022      -2.27040014       2.14712653
N      -48.58947005       6.29009600       5.43440588      -1.06617537       0.72002174      -0.86408387      -0.37781574       0.90094781      -2.58943033
C      -49.51573341       9.76065448       4.47723916      -0.57320006      -0.29753580      -0.11325158      -1.50618441       1.71532269       0.30502247
N      -50.27977347       8.29880241       6.42821515       0.49304696      -1.58314487      -0.33505895       5.99419575      -1.25677538      -1.31871148
N      -50.40370236      10.72370852       4.87348819       0.00508452      -0.92116217       0.31677263      -0.60630947      -2.23770947       1.56202869
N      -48.74079752      11.20893551       2.58752472      -1.05914372       0.85947845       0.51619775       0.14066102      -0.66996372       0.55354303
O      -46.60578469       5.64177200       3.93537176       0.68891286       0.40270167       0.20480805       0.40291409       0.38554252      -0.44253544
O      -46.10805932       6.81590927       2.17998352      -0.26058881      -0.29447050       1.12265368      -0.49333721      -0.24940866       1.83422559
O      -51.39640211       8.59017603       6.51154506      -0.88317203       0.12859626       0.84919421      -3.85761369       1.27928475       0.28476314
O      -49.61291589       7.72025157       7.30495528       1.70088270      -1.11012451      -0.45118312      -1.15445363       0.71180961      -0.05277660
O      -47.67527247      11.57694445       2.05277375      -0.53914863      -0.11138550      -0.24028289      -1.47567225       0.61888583       0.32059157
O      -49.81494488      11.80874914       2.46336524      -0.87399759       0.73449308      -2.00429112       1.83306858      -0.98572535       0.28347314
H      -46.35324912       8.41612804       1.78713714      -0.36400963      -0.04588387      -0.31790898       1.43097535      -0.70449274      -1.31416531
H      -46.81862872      10.17481447       1.65440423      -0.15550896      -0.13926321       0.26902296       0.41451083       0.08532718      -0.59254814
H      -48.66242018       6.49514902       6.36438435       0.13542259      -0.03795623       0.01547363      -0.53032426      -0.61824660       2.81506043
H      -48.08364097       5.49382673       5.06498545       0.11749717       0.02543695      -0.52943511      -0.03489023       0.71800002       0.25350753
H      -50.38599782      11.61229998       4.52687635       0.20925098      -0.05081389      -0.15528987       0.53251218       2.31118455      -1.61132874
H      -51.11150797      10.67271425       5.61883259       0.00303765       0.41762788      -0.00018793       1.06738539      -1.00545064      -0.62036237
C      -48.04625587       3.76959242     -28.27459294      -0.48369107       0.63873603       0.46401740       0.01035215       1.03799110      -1.44429486
C      -46.74036046       3.17491168     -27.94169721      -0.70589185       0.69198496      -0.28540863      -1.41233044      -0.16755052       1.04921455
C      -49.14378274       2.92908392     -28.71555765      -0.60019269      -0.73106607       0.81357323       1.45671895       2.38328828       1.30986034
N      -48.21449121       5.11433676     -28.41170461       0.03934091      -0.76913375       0.82580224       2.93491697       0.20516401       1.30502111
C      -46.51946747      17.07412972     -18.33077809       0.51359356      -0.73069444      -0.24487429       0.10249006       0.42125603      -0.72885183
N      -45.73161419       3.96710734     -27.21951967       0.98536921      -0.53130591      -0.45132166      -1.00921674       0.57487784      -1.31448783
C      -47.57913964      16.38853405     -18.93938287       0.16943829      -0.02855488      -1.63109696       1.41175281      -1.23301339       0.04170964
N      -45.36409152      16.42199055     -18.06033259       0.25780379       0.80629023       0.04495208      -1.37064972       2.49857523       0.91463734
C      -48.84191610       1.59965355     -28.97940644      -0.65419369       0.62305992      -0.63049958      -2.85236177      -1.85805809       0.00652263
N      -47.30541313      14.94026511     -19.06201506       0.03069730      -0.96988117       0.11079147      -3.91929513       0.25371979       1.63096862
N      -49.80792099       0.73266663     -29.37862552       1.59649724       0.55416378      -0.15035703      -1.67649263      -0.74415061      -1.44295922
N      -50.44663265       3.55502059     -28.97539588       0.63572668      -0.77323206      -0.61065753       2.12239826      -3.17665804      -2.08379388
O      -45.52571198       5.05687651     -27.79898754      -1.70537384      -0.39887381      -0.57076833       0.35143966      -0.84159587       1.85345375
O      -45.23415627       3.56316370     -26.18191155       0.01508602       0.03799228       1.14048496      -0.12189390       0.50412221      -1.29638810
O      -46.28601675      14.53913899     -46.85392330      -0.11215173       0.12585729      -0.03478497       2.06627956      -0.74580488      -1.37150312
O      -48.19058108      14.18213044     -18.60731252       0.75765227      -0.75804082      -0.39992110       0.81223040       0.29161965      -0.49701931
O      -50.69225322       4.69643548     -28.73957510       0.27190928      -0.02780228      -0.14512458      -0.62387195       1.71675648       0.95018183
O      -51.17615077       2.83410419     -29.64602545      -0.27362829       0.06418828       1.25110738      -1.33239405       0.25975180       0.21331547
H      -49.00076660       5.57244536     -28.85229778       0.19404566      -0.15268599      -0.41697004       0.34762311      -0.52261215       0.48667406
H      -47.34401845       5.66841248     -28.21030777       0.05233998       0.12939432       0.10409469      -1.60458540      -0.77009053      -0.47215650
H      -45.21590180      15.57633643     -18.52699944      -0.10001376      -0.12832090      -0.12210453       0.84974914      -1.08064626      -0.46987554
H      -44.62894332      16.97717880     -17.68763821      -0.00550235       0.03223916       0.18444068       0.65646745      -0.15261381       0.21183805
H      -50.78736578       0.96321807     -29.73458077       0.30964386      -0.39069426      -0.06582286       2.60380239       0.37438569       1.04316210
H      -49.54552131      -0.22542375     -56.92329634      -0.02103131      -0.25100194       0.23866769       0.04848407       0.46558794       0.33095787
C      -33.65067970      -3.20990631      14.37593226       0.17450658      -0.53126092      -0.37110919      -0.33123739       2.22415030       0.06038117
C      -34.00138324      -4.29017285      13.59859130       0.24893694      -0.45598416      -0.55214838      -4.00883928       0.72224836       0.09719377
C      -34.63022699      -2.67107016      15.32228512      -0.24746495       1.17208999       0.07719758      -1.71471914       0.31973857      -0.76852671
N      -32.50869352      -2.54705787      14.09974362      -0.17940781      -0.38763115      -0.39497920      -1.04906311      -3.17343909      -0.34789775
C      -35.41535891      -4.60656699      13.38921585       1.39540965      -1.13673317      -2.04502675       1.61405901       1.78452418       4.03461563
N      -33.16415548      -4.66259047      12.52273615       0.56962911      -0.01864871       0.09014598       0.47208299      -0.75264134      -0.25795670
C      -36.36484091      -4.08074931      14.32937525      -1.38205589       0.65586769       0.54626561       0.70197029       0.08937204      -1.64463656
N      -35.77012171      -5.42998410      12.49722448       0.08303594      -0.48007208      -0.13814039      -0.85296570      -2.07300110      -2.88738882
C      -36.05159633      -3.03388422      15.20844007      -1.36085560       0.38557183       0.55505771       0.68494885      -0.36609778       2.25714516
N      -37.70262940      -4.54821492      14.13896273      -1.36335514       0.98308573      -0.83504348       1.36152436      -0.58586535       2.36713396
N      -37.02906250      -2.59898041      16.06660616      -0.76669505       0.12305053      -0.61864524       0.06662372      -1.51338456      -0.00560540
N      -34.33054825      -1.55398133      16.13468560      -0.30369523       1.00398208       1.00488114       1.09477939       1.82581317       5.12649923
O      -32.36696741      -5.50630214      12.80718864       0.33307865       0.02262046      -0.12533470       1.88527375      -1.45408801       0.41548429
O      -33.30191507      -4.20909433      11.41657570      -0.33698531       0.59583805       0.35863317      -0.58322259       1.00031460      -0.96689381
O      -37.81866220      -5.70207434      13.72782522      -0.32697639      -0.28817746      -0.24946469      -1.24677096      -0.23125674      -0.68102366
O      -38.58622605      -3.92053351      14.66127559      -0.38486977       0.25974124      -0.17331185      -1.54326196       0.11358288      -0.83766753
O      -35.01734837      -1.14104566      17.13113381      -0.88550687       0.98008372      -0.60031262      -2.07918753      -1.77634892      -2.31303037
O      -33.22491129      -1.01569943      16.18572542      -0.19095237      -1.06531352      -1.25136627       1.70336251      -0.89966286      -2.95210648
H      -32.35457513      -1.70785364      14.50137106       0.10594354       0.15237652       0.21799419       0.58637372       3.04808761       1.68933176
H      -31.90261344      -2.87026726      13.39246556       0.06814254      -0.12194830      -0.21367472       0.50976683      -0.33761980      -0.53687530
H      -36.69451508      -5.86259533      12.40968724      -0.15865989       0.23290192      -0.23163907       0.33203640       0.67514977       0.47265861
H      -35.22809940      -5.42007900      11.68543506      -0.04186724      -0.20559818       0.03095919       0.96708896      -0.55984578      -1.33019370
H      -36.76420439      -2.13039056      16.91188660       0.19006381      -0.16532270      -0.03364228       0.66674597       0.43060703      -0.16067689
H      -37.77469263      -3.31937409      16.22756728       0.05299126       0.12526106      -0.08820671       0.83831823       1.55575978      -0.53537341
C      -19.13285317       4.97548714       5.93313689       0.95232292       1.42816304      -0.03107540      -1.32931524       3.67534640       2.59866704
C      -19.81607895       4.27834431       7.03789967       0.30230576      -0.00891046      -0.53898556       0.74081692      -1.04405328      -0.74717200
C      -18.76516609       4.30648400       4.79322084      -1.26467391      -0.71063768       0.25877358       0.77800740      -1.75122474      -3.27411862
N      -18.97155305       6.37907408       5.96092312      -0.21799298       0.75746273      -0.27920104      -1.01505268      -1.69756372       2.53739260
C      -19.95927257      18.13214571      16.67023343       0.23432317      -0.15539957       1.04090665      -2.50760187       1.25029640       1.74859169
N      -20.30241827       4.99642950       8.21331563      -0.63524545      -0.11608201      -0.10191992      -1.55136503      -1.32384819      -0.02863764
C      -19.61872934      17.53425873      15.46302774      -0.75479093      -0.36468367      -0.03660870       1.27656618       0.21675715      -2.08263742
N      -20.72193957      17.44765550      17.61319393      -1.72991009       0.51552071       0.92104138       0.66020617       2.24640233      -0.38483019
C      -19.08909953       2.92667569       4.53310676      -0.42306372      -0.85780887      -0.28678695      -1.69116876      -0.11097730       0.63365145
N      -20.01193553      16.17244453      15.33829609      -0.19941809      -0.07324581       0.46924991      -0.91469626      -3.39885650       0.83016642
N      -19.20131018       2.36398737       3.30103982      -0.29296924       0.48366738      -0.43513633      -0.03782910      -0.67991436       2.87054167
N      -18.35790827       5.02782292       3.58295992      -1.71720343      -0.10621871      -0.25771963      -0.28132442       2.12801423      -0.79360911
O      -19.81118511       6.08975492       8.35929675      -1.37112984       1.90869506       1.26375406      -0.23359977       0.81394023       1.09101704
O      -21.24226331       4.56828764       8.99626280      -0.10760189      -0.51260988       0.41396262       2.59873309       0.65715064      -2.25911763
O      -20.72813591      15.74892205     -12.93899028      -2.22603558       0.34909965       0.03762053       1.12140775       1.22913580       0.48311356
O      -19.68730251      15.38074015      16.26536685       1.23222952       0.30504381      -0.93494468      -0.10235225       1.49480895      -1.34002890
O      -18.53093038       6.27318013       3.50638210       0.00039010      -0.09992636      -0.23573178       0.21195698      -1.12756730       0.53145691
O      -17.92468834       4.47771525       2.57913750       0.29721340       0.21610745      -0.18923150       0.01170056      -0.91422672       0.88810771
H      -18.80289986       6.84515619       5.08747690      -0.04909010       0.15597144      -0.03209490       0.00301535      -0.08586371       0.03766393
H      -19.31538933       6.84187287       6.84585819      -0.26554771      -0.11617537      -0.04092105       0.82458354      -0.88419550      -1.80413217
H      -20.61052390      16.46161074      17.66620046       0.08824961      -0.08447978      -0.11467344      -0.17807741      -0.36776043       0.18327695
H      -21.30521184      18.02446334      18.26645582      -0.29861794      -0.10913271       0.00337345       1.22631928      -0.91728593      -0.84812854
H      -18.82054284       2.69728206       2.46312986       0.14214194      -0.09598741       0.05920543       0.56697160       0.80858948      -0.51228415
H      -19.63067689       1.45732635     -24.04970765       0.21454164       0.02518029      -0.12894699      -0.02834451      -0.09678750      -0.21684082
C       -2.00531824      13.62633163       0.84983117      -0.33619116       0.45039303      -0.68590129      -0.13535637       0.67270658       0.07002837
C       -2.00597145      12.64045686       1.94191180      -0.43571883      -0.50955408      -0.51210349      -0.65580628       3.14639282      -1.47989722
C       -1.25899169      13.21209409      -0.34679834      -0.82792035       0.90337201      -0.25208043      -2.53013747       2.67081154       0.86601076
N       -2.64508779      14.85203213       0.91559432       0.27415779      -0.86292989      -0.46199602       0.68217557      -2.97756603       1.38897753
C       -1.07385004      11.60288410       1.98237445       0.97304558       0.76776463      -0.17056989       0.63328232       0.03923353      -1.30199788
N       -2.98972845      12.89228019       2.97775819      -0.28782788       0.04702983      -0.36435581       0.52082186       1.87322690      -1.68427841
C       -0.27569340      11.36552203       0.78481476      -0.49565655      -0.13128063       0.40256964       0.07529583      -1.14368783       2.79162482
N       -0.85827621      10.92434578       3.07489010       0.28024733      -0.28219623      -1.40506475      -1.87983381       0.55433125       2.25864087
C       -0.38814591      12.12585192      -0.34256877      -0.03859560       0.30261649      -0.25408875       0.24247690       0.40093814      -2.75598156
N        0.73606711      10.34903365       0.84200953      -1.01049122      -0.79786689       0.51985684       0.18844675       0.63100993       0.58200761
N        0.30191633      11.88173892      -1.48079575       0.33927438       0.27529850      -0.36412232      -0.57055128       1.25887898      -0.78308425
N       -1.58704026      13.97705935      -1.50496433      -0.38534391       0.93162713      -1.48309606       2.19321862       1.72734410      -2.28908621
O       -3.32506196      14.09767652       3.17981635       0.56948866      -0.36048460      -0.01802384       0.02736573      -2.79274136       0.96576094
O       -3.50694368      11.91668668       3.44823792      -0.07019421       0.82495603      -0.00295961      -0.55396679      -0.16834820       1.51786500
O        0.78662023       9.54396353       1.75981822      -0.84857273      -2.10175159      -0.12370303      -0.91944565      -0.88627050       1.39705487
O        1.60451641      10.31823478       0.01839874      -0.78960672       0.32969170      -0.09071278       1.04353488       0.21982372      -2.06119410
O       -1.03728867      13.74277911      -2.64268420      -1.79814999      -0.04402543       0.11382707      -1.12384918      -0.49319377       1.94326357
O       -2.24617963      15.03219049      -1.42564940      -0.52609262       0.43662476      -0.23810893       0.27923939      -1.46889226      -0.73948729
H       -2.65901151      15.40876941       0.07186285      -0.01534555      -0.27625648       0.03750252      -0.14300596      -0.15340881       0.21683184
H       -3.19945395      14.97450237       1.77544604      -0.16142206       0.03665842       0.29646517       0.60065879       0.23067485      -0.78872194
H       -0.29054547      10.11475042       3.01319811       0.06038569      -0.30407815       0.05475172       0.43045273      -0.55422566       0.21747454
H       -1.39874694      11.19176035       3.93222633       0.02892783      -0.22311617       0.24921086       1.02541500      -0.74026063      -1.45628152
H       -0.00593432      12.41788064      -2.32759828      -0.28484513      -0.18170856      -0.08959710       0.18689923      -0.58853609       1.36083845
H        0.61678763      10.95634587      -1.59975763       0.07916189      -0.40437036      -0.31248143       0.75588115      -0.73739846      -0.08196078
C      -30.63726792      31.08197045      44.75725848      -0.64309583       1.37226742      -0.11872104       2.99263742      -2.43385380       0.42281592
C      -31.94246452      31.11122897      44.29093904       0.20497037      -0.22037426      -0.86896406      -0.54925870      -1.40020614      -0.62091325
C      -30.16055160      32.07848704      45.62298406      -0.07435737      -0.60436346      -0.44433913      -0.25826616       0.16013733      -0.39898583
N      -29.74253256      30.02544186      44.46550127       0.45356149       0.80552854      -0.38365343      -4.01399139       3.06939240       0.22491023
C      -32.73045216      32.23601621      44.58256747       0.98962431      -0.74997765      -0.93368770       0.24196066       0.76273233       0.52433116
N      -32.46980088      29.91134666      43.55453537      -1.40382564      -0.46124818      -0.31880439      -0.48875895      -0.41057933       0.28888828
C      -32.16206214      33.28484385      45.38669668       1.33331459      -0.05585964       0.29553799      -0.09348604       0.06451309       0.73557164
N      -33.97221120      32.37680789      44.15918743      -1.13242276       1.33389502      -1.55620279      -0.94987486      -0.76261992      -0.55405675
C      -30.90916444      33.20132300      46.01811730      -1.05828917       0.21092517      -0.94120386       0.07503975      -2.73537458      -2.28615666
N      -33.01476432      34.31078169      45.90132650       0.70984107       0.02203839       0.19015409      -3.93166046       0.76795933      -0.46902024
N      -30.41454504      34.03187953      46.88081530      -0.05571355       0.02923910       1.06248262       0.93866497       1.69917305       1.56341631
N      -28.77795847      32.02399087      46.06737504       0.23437826       0.24357417      -1.09853977       1.98216346       1.64061707      -0.08574543
O      -33.67896198      29.69042775      43.51709079       1.02001152       0.27654145      -0.69424711       0.00581229       1.23575491       0.46114533
O      -31.73447201      29.05486207      43.04505011      -0.49382879       1.50287369       2.21972950       0.68123173       1.44652593       0.49395553
O      -33.87386640      34.80520898      17.72667591      -0.11132127       0.94393763      -0.25974223       2.22319190      -0.51327783       1.67623268
O      -33.08685762      34.57187266      47.11268726       1.23631655      -0.16540075       1.52255295       0.94482805      -0.11558422      -1.81526104
O      -28.00390385      32.96346245      45.73351651       1.11497437      -1.96035362       0.26474237      -1.79997077      -1.46316644       0.49218931
O      -28.40483199      31.10638376      46.77292737       0.41352992      -0.01045015      -0.91692987      -0.29724601      -0.19977158      -0.33791179
H      -28.94966119      30.08359538      45.00126419       0.14731465       0.01854509      -0.07587186       2.20952761      -0.80905032       0.54424582
H      -29.97327438      29.50646080      43.65934086      -0.26620868       0.11134920      -0.32142835       0.41128659      -0.80499012      -0.44795747
H      -34.38147557      33.26988960      44.14598169      -0.00334253       0.00857867      -0.21303172      -0.42065152       0.98352776       0.30061260
H      -34.56033919      31.60591493      43.93414348       0.40457606      -0.10526573       0.24846103       0.26783542      -0.64259574      -0.39252105
H      -29.45103786      34.25427242      46.92982444       0.27838247      -0.66038131       0.31716218       1.04951078      -0.67304512      -0.21107196
H      -30.90437437      34.82923613      19.79161103      -0.02539011       0.08372466       0.05713607      -1.39778747       1.13973800       0.41459197
C      -61.72674647      13.98294597      11.61438487       0.79980006       0.48369694       0.73009370      -0.30082325       1.01337247      -2.29739503
C      -61.63230299      14.71125167      12.82015706      -0.98660240      -0.62278448      -0.84495461      -0.06494649      -1.10770532      -1.17236893
C      -62.20103044      14.71918161      10.45947291      -0.45222319       0.23450388      -0.28720842       0.64574270      -0.82584945       2.33062299
N      -61.29427136      12.75669336      11.41680544       1.26568200       0.50563928      -0.01895716       1.23538645      -1.09278757       4.46707984
C      -62.31987081      15.94110439      12.90817409       1.50011423      -0.16580865      -0.69495108      -1.12504124       1.77842721       2.17117728
N      -61.20133948      14.02018766      13.96403719      -0.29909979      -0.78352516       0.51998026      -0.03336361      -0.02550568       2.36041763
C      -62.79605798      16.65166545      11.78468966       0.24363929       0.92920101      -1.41293891       0.56611667      -0.06673271      -2.03039897
N      -62.66355358      16.51044362      14.08562314       1.90088988       0.19581978       1.39493763       0.57282094      -0.38682291      -0.37145023
C      -62.53937687      16.07400192      10.46777632       0.22911166      -1.40716487      -0.69278757       0.03663781      -1.20651243       2.69986229
N      -63.37831233      18.01581559      11.88630397       0.65020074       0.09771780       0.80316634      -0.13053674      -0.58992961      -2.67935175
N      -62.61360584      16.67371231       9.31888794       1.46914555       0.22458768       0.09866528      -0.30631672       3.55654964       2.31264513
N      -62.49522047      13.92627224       9.35329632       0.84059534       1.40872910       1.42383085      -0.74290491      -3.22483034       2.50747524
O      -61.53353397      14.50805452      15.04114517       1.01220674       0.78276339       1.44926421      -0.04238247       0.41186620       0.56623629
O      -60.54390726      12.98637619      13.97399643      -0.47039210      -0.66470832       0.57026551      -0.05960470       0.02533728      -1.35882760
O      -64.26833870      18.30277507      10.99453465      -0.24628336       0.12287255      -0.88947269       2.47273473      -0.49907286       2.70502002
O      -62.88305911      18.80538618      12.68616826       0.15673789      -1.23532162      -1.09142848      -1.26093791      -0.30340879      -0.73894861
O      -62.94706378      12.78688175       9.64262578       1.68837829      -0.46140261       0.37554459      -0.20609514       1.07868888      -1.62915415
O      -62.29406608      14.28521662       8.24552171       0.00663384      -0.82211930       0.59654652       0.24188676       1.13285780      -3.13199567
H      -61.44351875      12.12148169      10.70232519      -0.16924591       0.19477595      -0.11291307      -0.78641162       0.00878803      -2.07353560
H      -61.07275318      12.17262259      12.24780536       0.03276870      -0.20809425       0.25587969       0.27316341       1.29034216      -0.55909152
H      -63.04381130      17.41856491      14.00281889      -0.13337100       0.19157992      -0.08039411      -0.30650075       0.47547243       0.34586944