1296
Lattice="-45.37972497952482 -30.51830940182734 41.026700843966495 0.0 19.39275344682844 0.6521353592100517 0.0 0.0 -24.136536158931182" Properties=species:S:1:pos:R:3:momenta:R:3:forces:R:3 energy=-1487775.0744676108 free_energy=-1487775.0744676108 stress="0.0031272404156214616 0.00025753568164707855 6.855385284167544e-06 0.00025753568164707855 0.0037402038735170093 0.0004625360245501755 6.855385284167544e-06 0.0004625360245501755 0.0055419219561982595" pbc="T T T"
C      -25.34784580     -29.72199671      26.06451757       0.04159955       0.72691557      -0.54220861      -0.04239417       2.56912069      -0.60590205
C      -25.62972106     -30.90533140      26.62400541      -0.07694851       0.16163975       0.22158597      -0.08730874      -2.70356958       2.62901127
C      -25.84400249     -29.55369266      24.69181534      -0.06790792       0.75251364       1.06366527      -0.68193007       1.15596594      -1.22507768
N      -24.75244481     -28.75839958      26.78156535       0.55086037      -1.15823729      -0.46106619       1.18175917      -1.03295496       3.07264663
C      -26.58194774     -12.37957948      26.73984667      -0.50204362       0.49962069       1.20317148      -0.76077009       0.40523356      -2.73377123
N      -25.11984125     -31.36943675      28.00887248      -0.45838620       0.17069447       0.73214581       1.19244321      -0.66334392       0.34717903
C      -27.39923723     -11.96164134      25.58227737      -1.24017961       0.66945772      -0.35561273       1.14022976       0.97045688       0.66288335
N      -26.64264349     -13.59846801      27.18795319      -0.73922547      -0.53868608      -0.52689166      -2.47954686      -1.39601950       0.53055641
C      -26.96061915     -30.21112279      24.09793428       0.16367024      -0.66237378       0.38833803      -0.55389969      -2.70256192       1.39917670
N      -28.47456796     -12.74738169      25.16983624       0.41741008      -0.11152324      -0.36579668       0.05465193       0.44168293      -2.93642132
N      -27.54353167     -29.95188766      22.92298978       0.98022354      -0.08714468       0.59140899      -0.49734662      -0.71889536      -0.34818089
N      -25.35874356     -28.49372449      23.86330557       0.34530774      -0.39791856      -0.17607886       0.05802722      -0.41411162       2.14253048
O      -25.16306189     -30.62763310      28.97577046      -1.97714489      -0.99597264       0.90797926       0.02644242      -0.05102869      -1.44523245
O      -24.64000377     -32.54377081      28.10927215      -0.34125561       0.14411938      -0.90346602      -1.02400250       2.48293661      -0.43484268
O      -28.89382426     -12.50035032      -0.14481902      -0.29976742      -0.91322627       0.10518038      -0.83641506      -1.51473101       2.17022973
O      -28.94303662     -13.65186682      25.84070809       0.59211604      -0.39006803      -1.56427928      -0.03594299      -0.11050218       0.33120146
O      -25.92315804     -28.12768155      22.87545271       2.49475445      -0.00948379       1.63704285      -1.20498804       0.51021320      -2.45231653
O      -24.37305884     -27.94313186      24.24525789      -0.49892095       0.41775320      -1.04667263       2.95373540       1.24418231       1.07300942
H      -24.63690574     -27.83510798      26.48833523      -0.31437480       0.01937762       0.17369158       0.29749940       1.12011896      -1.28785711
H      -24.36274184     -28.86446567      27.79930809      -0.07249503       0.06085979       0.10560345      -1.38705540      -0.41437666      -2.95692897
H      -27.54132453     -14.08810378      26.89886165       0.06936203      -0.12764688      -0.34322552       1.59351504       0.32062702       0.88629987
H      -26.08781671     -13.72456262      28.03840705       0.24713633       0.14784402      -0.02166861      -0.50510786      -1.18438870      -0.66313590
H      -27.08251056     -29.39980562      22.25012622       0.15477843       0.13887167       0.02386784       0.64476519       1.09233038      -0.00396969
H      -28.28242008     -30.55252205      -1.62638234      -0.17892518       0.15776676       0.01471906       1.03543657       0.32179517       1.53756804
C      -51.05355063     -30.53597864       3.97230075       0.05601174       0.18559179      -0.88254022      -0.91391976      -0.94565617      -1.27957503
C      -51.19267091     -29.39227171       3.08961112      -1.32424971      -1.42607703      -0.53809876       0.08334939      -2.31228272       0.23494236
C      -50.13537182     -30.39909756       5.03204096      -0.08980102      -0.62543402      -1.44610974       0.11320480      -0.95763901       1.98783283
N      -51.80705722     -31.68245749       3.68903231       2.67359688       0.41163229      -0.16996347       0.70866711       0.25163046       1.67543034
C      -50.36223449     -28.22042821       3.13177906      -0.93454775      -0.61045765       0.98756936      -1.43279762      -0.94550204      -1.70115001
N      -52.11435916     -29.73386746       1.96806557      -1.28397211       1.46237422       0.35508754       0.23779504       0.04205983       0.36895040
C      -49.40961929     -28.26140567       4.14874135       1.10646815       0.44960528       0.81091246       1.04608029       1.68856545       0.29838528
N      -50.56051692     -27.28088593       2.16520421      -1.58773837      -0.58141492      -0.47533878      -0.32566623      -1.51644836       1.85762448
C      -49.38044464     -29.21144702       5.22769965       0.64078076      -0.95592652      -0.16638743      -0.32502914       0.95547717      -0.92305265
N      -48.47824896     -27.12607321       4.25984012      -0.93271628      -0.26733919      -0.75123008      -0.42220509       1.35628681      -0.91988211
N      -48.74782470     -28.83266180       6.34781591       1.40415581      -0.13315637       0.32191805      -3.09488775      -3.39551973      -0.87305382
N      -50.04405271     -31.48502631       6.11561598      -1.09825908       1.05537588       0.17728682       0.60905732       1.25569038      -1.09814058
O      -51.99964614     -30.85741951       1.40138459      -0.22103750       0.45359968       1.77313095      -0.41287944       3.09856331      -0.16858233
O      -52.99620161     -28.92333054       1.74696699       0.43576375       0.42555807       0.92473467       0.54340276      -0.49868256      -0.73223900
O      -47.57079375     -27.18299800       5.04423442      -0.41710094       0.11049280       0.56686623       1.95835041      -0.89277513       1.46238811
O      -48.54850784     -26.08439290       3.61160998       1.32276762       1.28345247      -0.32389785      -1.68232871      -0.70642888      -1.33220650
O      -49.01966661     -31.48826426       6.79702068      -1.02026048      -0.31550878      -1.53452550      -0.61072960       0.09140179      -0.09997854
O      -50.93239583     -32.29701802       6.23166597       2.23320486      -0.33267967       0.24406758      -0.13490346      -0.03312469      -0.25673355
H      -52.31651330     -31.65673579       2.80250801      -0.18829772      -0.41416046      -0.25182601       0.60109652      -0.72995309       1.08500248
H      -51.77563973     -32.58764114       4.22449419       0.56694718       0.14169727       0.20807484       0.27779639       2.12296509      -0.64695242
H      -49.95052793     -26.58738144       1.84587392      -0.27471760       0.14633785       0.35516333       1.25436179       0.96499921       0.37192211
H      -51.29116135     -27.47467168       1.53518757       0.21175745       0.13764383       0.01125453      -0.59580123      -0.23351451      -0.61788313
H      -48.79070042     -29.48683437       7.05436778      -0.15037366       0.32135099       0.42251264       0.30911926      -1.39377170       1.68309515
H      -48.18418358     -28.08273764       6.36146264       0.11715344       0.38996643       0.17940069       2.23645858       2.63966615       0.11606293
C      -39.94239178     -39.25864225      -2.67823234       0.50354002       1.57621452       1.20681211       0.79740209      -1.15989803       2.51801234
C      -40.88164636     -39.32230639      -3.69820533      -0.84566127      -0.58802999       0.79996470      -1.99618488      -0.73962759       1.05750114
C      -40.00212488     -40.31764210      -1.56058357       1.44771961       1.06610542      -0.38750965       0.14331352       2.41979250      -2.64454566
N      -39.01699948     -38.27191813      -2.64296137       0.47984881       0.26987663       0.25024283       0.27379048      -0.29771082       0.03867810
C      -42.08071553     -20.80385627      -2.92870085      -0.89143376      -0.41271929       0.08874137      -0.47055848      -0.51580576      -0.80418558
N      -40.76828117     -38.43878368      -4.80751780       0.21539613       1.41339438       0.10803423      -2.80119800      -2.88845802       0.16171503
C      -42.02690586     -21.93868102      -2.07275168      -0.58440968       0.78515344       0.95159990       3.65918719       3.40861141      -0.34477705
N      -43.26061682     -20.60130092      -3.61016890       0.20522871       0.52721283       1.93384025      -0.58957946       3.67344663      -2.01264558
C      -40.90326619     -41.42123312      -1.71309297       1.36341110       0.86291808       0.35532389      -1.06316829       0.77539911      -2.30981012
N      -43.07940179     -22.83226078      -2.06526113      -0.72590175      -0.25211766       0.98362153      -0.25549953      -1.09635762       0.95566765
N      -40.78496590     -42.62026641      -1.16260409       0.99206062      -0.55623063      -1.43120908      -0.41805438       0.11298006       1.13908816
N      -39.08078913     -40.14712953      -0.42076320       0.60171935      -0.98758252      -0.36312616      -2.45934451      -3.41799796       0.23983240
O      -41.74186942     -38.56999282      -5.58326755       1.51166469       0.69312677       1.25735529       2.09060655       2.12776146      -0.79020881
O      -39.76721052     -37.80432477      -4.96340855      -1.64951133       0.86594321      -0.74183625       0.35129202       1.56429074      -1.64385971
O      -43.67637867     -23.18960166     -27.20008259       1.08970436       1.80206091      -2.07750213      -0.23907967       0.47002257      -0.33591531
O      -43.33176135     -23.28049743      -0.94933635      -0.38580154      -0.93450517       0.91381637      -1.13277772      -0.94326284      -0.00505222
O      -38.29576372     -39.26604624      -0.26590801      -0.09529284       0.04419935      -0.13723764       0.86748191       1.22325249      -0.58267796
O      -39.24999641     -41.05169151       0.42363683       1.61390589       0.56299358      -0.23046862       0.33539232       0.45427702      -0.36289920
H      -38.08356441     -38.48636353      -2.32455364       0.01333692       0.27353871       0.35231368      -0.50566737       0.12500828       0.66859270
H      -39.07400681     -37.46919501      -3.27157345       0.11653728      -0.09774617       0.17552942      -0.05430972      -0.97342126       0.32855589
H      -43.80893109     -21.32806864      -4.04373369       0.14632607      -0.22951921      -0.09681670       0.41725996      -0.47869301       0.82177338
H      -43.44700527     -19.66329247      -4.21876769      -0.20223725      -0.10224496       0.06433240       1.45452549      -3.31543768       2.41031774
H      -40.44514061     -42.52327716      -0.23065750       0.26438754       0.28370223      -0.36737893       0.81491121      -0.47605450       0.58492216
H      -41.65309758     -43.13762783     -25.37241150      -0.33201227       0.02936762      -0.36719644       0.60880448      -0.22157817       0.34652013
C      -31.57631013     -20.43694246      37.55422483      -1.24086630      -0.25628840      -0.02025281      -1.45187629       0.50074314      -0.01418272
C      -30.84835753     -19.80755348      36.44654579       0.58252082      -0.69311496       0.12911547       0.90610965       1.21411052       3.56786089
C      -31.38122557     -19.98259342      38.90208896      -0.15406500       0.41232444      -0.39591064       1.25070289       0.74432796      -0.41559472
N      -32.60208506     -21.26297095      37.26696483      -0.31805793       0.07848449       0.14236411       0.93481787       0.80525308       1.56511705
C      -29.72452659     -18.95546614      36.65788514       0.93419732       0.50502005      -0.78627560      -0.24622953      -0.29444580       3.76688715
N      -30.91505255     -20.31747857      35.22078859       0.83819823       0.01624207       1.16433064       0.06085911      -1.91175955      -4.94028474
C      -29.54711554     -18.46117403      38.10427399       0.02619634       0.34075866      -0.00284493      -0.15780235      -0.98397268      -1.37177734
N      -28.81190305     -18.73183215      35.76696973       0.73825281       1.84293716       0.35807615       2.08050783       1.73089110      -0.01309654
C      -30.37639679     -18.90184455      39.18613595       0.96439798      -0.25193571       0.80813831      -2.60261329      -0.65720959       0.00453599
N      -28.64829502     -17.43138138      38.38403608       1.83314158      -1.48210357      -0.24286237      -0.53785678       3.21741985      -1.29062455
N      -30.47842756     -18.33826594      40.38231794       2.08366662       0.44829899      -0.71474877       3.14734407       1.62723899      -2.15681088
N      -32.22171106     -20.44691035      39.99305738      -0.03327669       1.23469654       1.70602233       1.06854529      -0.86696888       0.29121391
O      -30.51664981     -19.61024473      34.21908015       1.73746770      -1.15163632       1.72306629      -1.39224699      -2.03597138       1.69560291
O      -31.31223177     -21.49231244      35.08511026      -0.20151714       0.59503229       1.88184851       0.41694145       1.51809732      -0.67812139
O      -28.79112616     -16.71205105      39.40964023       0.25147285      -0.04658515       0.42355841       0.54587409      -1.14039996      -0.14357900
O      -27.88764886     -17.01042753      37.48478669       0.88635390      -0.16932196      -0.02591057       0.11499222      -1.02172603       0.82715504
O      -31.90768024     -20.25263345      41.18095801       0.18031625      -0.07459814       0.14978576       0.15007257       0.65102552      -0.63714060
O      -33.17425633     -21.16842467      39.76584724       1.79618495      -1.28889856       0.46375066      -0.81307645      -0.02115907      -0.62618974
H      -33.09867270     -21.56966789      38.10672260       0.37447332       0.14501717       0.25017474      -0.04515031      -0.19657330      -0.58123435
H      -32.61499920     -21.74759827      36.40457971       0.20210390       0.18004385       0.54730579       0.09398930      -0.16849403      -0.59459647
H      -27.99435076     -18.13472979      36.00043081       0.18569556       0.27711031      -0.25861406      -0.95703461      -0.36326905       0.19646190
H      -28.93272523     -18.92214752      34.78656041       0.45627201       0.08040455      -0.10188712      -0.59929293      -0.33953515       0.06110645
H      -30.99218396     -18.92272419      41.01514233       0.11269216      -0.09639557      -0.37465857      -0.24756084       0.17574501       1.19594605
H      -29.80187287     -17.49472536      40.48931070       0.04220378      -0.01284896      -0.00388998      -1.70506690      -1.97398434       0.29937614
C      -11.71806297     -16.37075222       5.62194057      -0.91300364       0.79950910      -1.53167400      -1.30569549       4.64011635      -0.74365446
C      -11.47160126     -15.27780341       6.58914025      -0.66028209       0.22948388       0.22250748      -0.36917321      -3.83697995       0.96331858
C      -12.34355383     -15.89631670       4.43571535       0.41685613      -0.50932183       0.55352459      -0.81063921      -0.13315771      -1.68889074
N      -11.43232573     -17.59438630       5.86228774      -0.18004948       1.19083521      -1.35760744       2.29583105      -3.44972742       2.44766464
C      -11.84109122       5.44251437       7.15370622       0.01992329       0.02319115      -0.40245302      -0.07342595      -0.38830162      -2.59923801
N      -10.98416151     -15.71206561       7.86977819      -0.66166308       1.50779991      -0.58617034       1.01431954      -1.56123248       0.92476555
C      -12.48265033       5.78139628       5.94388215      -0.52371287      -0.01110661      -1.12193951      -0.94173643       0.63555609      -0.74160611
N      -11.46908005       6.35845609       7.99861791       1.47234808       0.65923415      -0.80080780       0.77283697      -0.01780359       1.61191372
C      -12.77150935     -14.50779155       4.23630577      -0.53638349       1.13605214       0.63676030       1.32430663      -0.75960863       0.31510373
N      -12.63069020       7.25548561       5.80621546       0.41228150      -1.52960529      -0.59562293       0.35590288      -1.21739083       1.46719481
N      -13.30243942     -14.09354962       3.06609540       0.81204276      -0.06888158       0.62470561      -0.33171285      -0.45940027      -0.50855923
N      -12.56954317     -16.93343631       3.39421400      -0.69096006       1.04930438      -2.25770251      -0.21581920      -0.51776122       1.44288294
O      -11.36302938     -16.82500833       8.37677660       0.69271805      -1.23965221       1.06313691       0.76213919       2.90179486      -1.04926017
O      -10.12537479     -15.01090197       8.41036923      -0.29671115       0.06586032       0.98462510      -0.69059129      -0.64757465       0.26035530
O      -12.10779436       7.81911425     -19.24084427       1.91718051       0.42644244      -1.71090350       0.31209241       0.51722333      -2.45658252
O      -13.06402948       7.85792197       6.77561362      -0.24870902       0.44899061      -1.33882294      -1.15651791       0.23013026      -0.11870029
O      -12.06246915     -18.05008182       3.66258833      -1.38440773      -1.19147055      -0.61101068      -0.94069072       1.38017560      -2.27399697
O      -13.30968208     -16.75108768       2.42206018       0.16136396      -1.11960247       0.27430168       0.92083961       0.17283388       0.93724536
H      -11.12073090     -18.34803980       5.20057505      -0.24353328      -0.13190891      -0.16114409      -1.29987782       1.79926171       0.85969115
H      -11.25911582     -17.73397394       6.86946909       0.31087999       0.26547401       0.11686485       0.06108183      -0.48700539      -0.81837061
H      -11.78238213       7.28084388       7.94417743       0.04362168      -0.38267412       0.01716656      -0.57517338       1.25512826      -0.08967444
H      -10.77821310       6.12595330       8.66503589       0.33718345       0.03604883      -0.06344601       0.47154724      -0.23123168       0.59434772
H      -13.69970545     -14.82638963       2.42906788      -0.38264644      -0.02357066       0.27948352       1.08014846       1.31608475       0.85496989
H      -13.06490770     -13.14888640     -21.38384410       0.15179652      -0.11105255      -0.21126453      -0.64457444      -0.71473715       0.17520645
C        7.87838437       2.18369798     -12.00934971      -0.49972503      -1.99486747       0.66134569       1.63786814      -2.99212585      -0.82209871
C        7.58433046       3.45305420     -11.65330552       0.27621138      -1.10378664      -1.31984603      -0.15937443       2.63636806       0.56218855
C        8.15584267       1.09178333     -11.10389852       0.06627049       0.48462353       1.18579414      -2.02960286       2.29737147       2.76549000
N        8.04918014       1.94135088     -13.25632075      -0.19141268      -0.10108104       0.29073136       0.38948416       1.08834414      -2.82373436
C        7.25887715       3.69243492     -10.28885631       0.04757952      -1.42480219       0.42873827      -1.65844927      -0.71477203      -0.03434564
N        7.63060291       4.54737639     -12.67765239       0.22285230       1.40263759       0.61899458       0.50471428       0.14821804       0.98670415
C        7.10552003       2.54376705      -9.36752526      -0.11354131      -0.31427110       0.82291719       1.59722229       0.81155577      -0.84484364
N        6.81661999       4.87254125      -9.99675716       0.19187722      -0.93577204       0.39777754      -0.07151425       1.13316671       0.73995034
C        7.68544898       1.29734495      -9.69875294      -0.65917277       1.21749348       0.79771284       0.34130943      -1.62654426      -0.62482896
N        6.53321821       2.79408144      -8.07632166      -1.41692088      -0.10839953      -1.05136695      -2.62092451      -0.56645040       0.22640042
N        7.76337764       0.30044575      -8.78589158      -0.17784136       2.34156349      -0.42637359      -1.21527530      -0.88081329      -0.02846261
N        8.51031161      -0.15344445     -11.59200818       1.20686200      -0.70611946       0.11863611       0.14010324      -2.58424472      -0.83421693
O        7.13367798       5.64743117     -12.40701638       0.62652662      -1.44765386       1.03055276       0.66794269      -1.22016715      -0.54477233
O        8.23886280       4.36224247     -13.75765888       1.76856695       0.33315030       0.11537460      -1.02775366       0.77570695       1.05012439
O        6.56512326       3.93461931      -7.63957466       0.96381563       1.09108767       1.06413696       0.62013063       0.07436512       0.26815320
O        5.78423033       1.93566046      -7.53079698       1.06027091      -1.58172219      -0.22046809       1.89400545       0.48911975      -0.90747853
O        8.95433858      -0.98875880     -10.80023502       2.16314521       0.58365331       0.27252696      -0.12639513       0.67027651      -0.25340135
O        8.36564895      -0.48237743     -12.80120700      -0.47108483       0.69217406       1.48218172       0.24616906       0.69666500       1.41887330
H        8.38390291       1.06399148     -13.57267429      -0.05900982      -0.21394091      -0.01772672       0.04729945      -1.04189498      -0.12519898
H        8.19229156       2.77888004     -13.84343582      -0.16559889      -0.09424421      -0.03255897      -0.15333726      -0.92981913       0.12504820
H        6.60361097       5.05141748      -9.02670640      -0.20839216      -0.03766258      -0.34575217      -0.11149351       0.19743310      -0.12072844
H        6.70132900       5.53921335     -10.77063236      -0.10947632       0.00412548      -0.00056923       0.08639234      -0.21388099       0.65726264
H        7.91257959      -0.66424147      -9.07809360      -0.09258649      -0.23515816      -0.12569766       0.76354619       0.58532392      -0.61492443
H        7.08728962       0.19569141      -8.01997160       0.43418492      -0.08375730      -0.18188695       0.45263863       1.39809140      -0.27489190
C      -27.24186180      36.54897492      30.32814293      -1.03285231       0.15293980       0.18988002      -0.61749620      -2.44539110      -0.09947027
C      -28.30790562      35.58203717      30.40368165      -0.58538818      -0.66821072      -0.26246440       1.32980974       0.31878868       2.13596629
C      -26.38703767      36.75674346      31.42363427       0.05854982      -1.25639320       0.38549847      -1.75197956      -0.14684751       2.11802723
N      -26.97222922      37.09839324      29.16416948      -0.96681194       0.62599183       1.22725231      -2.73272751       1.11577643      -3.68479709
C      -28.71632385      35.12566159      31.74151786      -1.41308904      -0.49009606       0.02347366      -0.06903838       1.02294747      -1.74924246
N      -28.89754102      35.05750040      29.23030739      -0.06104009      -0.64013727      -0.03157944      -0.88630569       0.45914100       2.91927932
C      -28.01072209      35.59962544      32.88819530      -0.69156938       0.23666415      -1.05806967       1.22264310       0.10919342       0.11641306
N      -29.79659688      34.36835936      31.83734340       0.38676984       0.22110539      -0.11278590      -0.94722525       0.25003161       0.17607159
C      -26.81133613      36.40176613      32.76089401       0.30928734       0.06703937      -0.28714512      -0.09824039      -0.38016540       0.32102661
N      -28.40288801      35.30587522      34.27380778       1.01362975      -1.43567659      -0.64877445      -2.39210002       0.42043420      -2.01228873
N      -26.19651735      36.76509681      33.88760536       0.03205344      -0.98294319       0.50332234       0.07034311       0.16162912       0.46404174
N      -25.19662364      37.48841999      31.26758585       0.84106282       0.00592848       0.02158904      -0.06350444      -0.75114335      -1.02071718
O      -28.53700889      35.40888934      28.14375207      -0.42765071       1.40753307       0.98772013       0.09156325      -0.04927844      -1.75927413
O      -29.82435488      34.26536987      29.43414098       0.09090510       0.37055008       0.91516444      -0.17216550      -0.64247904      -1.77305085
O      -27.56570443      35.14576312      11.00921725       0.37707381      -1.39686492       0.53676581      -0.95167210      -0.57161830       0.35218440
O      -29.64805493      35.29708150      34.46110235       0.22757729      -0.23417355      -0.88287460       1.83880685      -0.56492456       0.38506443
O      -24.67041777      37.38498765      30.17823874       1.43143336      -0.00107104      -0.75920472       1.14038290       0.44560723      -0.56053385
O      -24.73509271      38.10280664      32.19807032       0.54890491      -1.25777785      -2.25622697       0.73205254       0.93525621       1.06435209
H      -26.71515929      38.03385865      29.25675592      -0.03668486       0.26543709      -0.13607788       1.57973311       1.41082748       0.01109705
H      -27.72291362      37.08706937      28.36835078      -0.58167991       0.31092338      -0.27586519       2.02790914      -0.75860679       2.37429258
H      -30.10115632      34.43931503      32.78476630      -0.17238192       0.07205409       0.19551706      -1.06086300      -0.75201973       0.35207625
H      -30.43931842      34.28963610      30.99089499       0.00803787       0.07578216      -0.08394368       1.47199827      -0.08519508       1.71980733
H      -25.35314191      37.29769849      33.92633018       0.47509873       0.09476508      -0.49023947       0.22183299       0.25614655      -0.79292382
H      -26.52793768      36.47871954      10.68402284       0.04904352      -0.23399254       0.30098381       0.30864457       0.07981200      -1.24907555
C      -67.30374799     -27.54863671      29.57466821       2.13388703      -1.67646646       0.15484518      -1.52689052       2.25786645      -2.81700758
C      -67.00698975     -28.05453394      30.78027733      -0.16587812      -0.88703195      -0.99304928      -0.46550530       1.09830385       3.27131509
C      -68.20130640     -26.40937182      29.45433677       0.94241816      -0.23802516      -0.66369566       0.65667948      -0.95848765      -2.13343775
N      -66.74078047     -28.03851718      28.50641812       0.33324607      -0.03319572      -1.07777704       2.17209109      -1.74881204      -1.43775698
C      -67.34002485     -27.03774434      31.83120063       1.35460998      -0.28204675      -0.84006773       1.48716239      -5.04555226       2.73237580
N      -66.22773757     -29.29469170      31.00070260       0.60833545       0.40119886       0.39230265      -0.05149058      -0.53210966       0.29754311
C      -67.86544804     -25.76377843      31.64974781      -0.58282212      -0.84568727      -0.59179661       1.26435179      -0.90671363      -0.17349950
N      -67.19421703     -27.54543965      33.10359551      -0.59808761       1.12491303      -0.39492035      -0.38348961       0.95839992      -1.53464566
C      -68.39390847     -25.42069305      30.39104984      -0.99033688       0.36427495      -0.70903498      -0.60762761       1.30127244      -1.25839711
N      -67.59033022     -24.85529912      32.64166411      -0.72375483       0.80622913      -0.91604277      -1.21750653       3.27569307       3.27023874
N      -68.95525657     -24.20579791      30.12756771       0.80973472       1.29919535      -0.05820768       0.98956844      -1.54212418       1.40059028
N      -68.53581609     -26.11429083      28.00951015      -0.17457768       0.32351460       0.64654176      -1.13043281       0.79836890      -1.68072150
O      -65.86292759     -29.51818031      32.13616597      -1.73240107       0.00858247       1.31902245       0.20035908       0.24997233       1.24671664
O      -65.95489935     -30.15620007      30.15343428       1.08110708      -0.05404884      -0.40653722      -1.18726666       1.70951492      -0.77508645
O      -68.04848110     -23.70277262      32.50279598       0.39058110       0.29869927      -0.19689588      -0.13706633      -0.06303487      -0.91872693
O      -67.04484178     -25.07428738      33.73433206       0.90359323      -0.30630810      -1.37167040       0.31319951      -1.17070909      -1.39848974
O      -69.71571613     -26.11721167      27.65437183      -0.44255442       0.94481258       0.75699689       0.05540346      -0.11246866       1.65276108
O      -67.70281243     -25.85187810      27.14910083       0.96865061       0.71968355      -0.15901571       1.03320163      -0.36872850       1.46421153
H      -66.70285016     -27.63149307      27.57588380       0.60665336      -0.09643754      -0.01840775      -0.31161268       0.06848991       0.81141319
H      -65.92279688     -28.60131196      28.79250416      -0.40013983       0.24122651       0.63332969      -0.77167263       0.06411771      -1.20613806
H      -66.94443751     -26.94707068      33.86791737       0.24078547       0.21058608       0.04813546      -0.36362382       0.17972570       0.05174505