1296
Lattice="-63.219697215405056 -28.70294818871074 37.1082843293801 0.0 16.13037287877114 0.903329478332005 0.0 0.0 -19.034473117880967" Properties=species:S:1:pos:R:3:momenta:R:3:forces:R:3 energy=-1487782.9986751063 free_energy=-1487782.9986751063 stress="0.002023484397654424 -0.0006337308290163576 -0.00018300657599512862 -0.0006337308290163576 0.004128920674906989 0.0013365587414914549 -0.00018300657599512862 0.0013365587414914549 0.003841029762156844" pbc="T T T"
C      -41.98398982     -25.03068887      19.82406995       0.38071284      -0.93955348       0.78032280      -4.00520191       3.76760821      -0.57844292
C      -40.75299226     -24.52529903      19.73203401       0.02201885      -0.92038016       1.04838799       2.56839065      -0.42093898      -0.11974114
C      -42.21530485     -26.37142794      19.88312724       0.11188296       0.77653661       0.85263680      -1.06763979      -3.21977530       0.14479071
N      -43.02850006     -24.10702011      19.82548109      -0.17551414       0.38682351       1.46037923       2.20411921       0.71140858       0.43278293
C      -39.63982383      -9.25163254      20.85454389      -0.55749687       1.30602171      -0.00779541      -2.64678059       0.73998790      -0.53776352
N      -40.45561011     -23.05926099      19.70339756       0.10866447       0.91612221       1.74980803      -0.30677267      -2.97709923      -0.44773637
C      -39.83276278     -10.63998451      21.06172340       1.36974568       0.03557168      -1.16455985       1.64804551       1.48616449       0.26417712
N      -38.52304860      -8.61584069      20.97200251      -0.26635526      -0.51180188      -0.20438424       2.64588068       0.43616830       0.44296253
C      -41.15145569     -27.22543122      20.23469692       0.45327399       0.59514439       0.08968853       0.49227666      -2.43551333      -0.01529795
N      -38.60709743     -11.49091643      21.27644598       0.36510637       0.01152584       0.94035527       1.27895272      -1.18136574      -1.95071191
N      -41.23218546     -28.50602619      20.64391568       1.23130003       0.96522868       0.22780785       0.37121530      -0.99135706       0.22387642
N      -43.56068759     -26.92496012      19.77417983      -1.09755781       1.44347404      -0.98028147       0.99867655      -1.88286451       1.58800253
O      -40.83480046     -22.43260718      20.64757639      -0.66335368      -0.03588774       1.09436465      -0.50390101       1.51908129       1.02454583
O      -39.78996869     -22.66036270      18.78167686       0.11072871       0.13303396      -0.40332900       0.40954385       0.71505756      -0.39069128
O      -38.53103205     -12.61890855       1.63244037       0.57638783       0.08858154       0.71884527      -0.86964312       2.77224804       1.98029538
O      -37.60299717     -11.02424336      21.84642525      -0.74652500       1.64266633      -0.24054238      -2.17272963      -0.50675973      -0.59563703
O      -43.68114248     -28.16799742      19.94043776       0.18900949      -0.30517083       0.36664152      -0.07578158       2.35970176      -0.79676896
O      -44.51331259     -26.18254019      19.62099420      -1.47716864      -0.34086181       0.54251799      -0.27187101      -0.22687592      -0.36338723
H      -43.96243559     -24.42827748      19.77628097       0.18572052       0.00347000      -0.04217183      -0.51959575      -0.01842279       0.22960421
H      -42.74908128     -23.17484619      20.18641545      -0.14868969       0.20240094      -0.01443793      -1.05356655      -1.22447083      -0.56121702
H      -37.89136151      -9.16898906      21.45469454       0.06345361       0.24555551      -0.18889208       2.27112653      -0.61336648       0.58797342
H      -38.19333278      -7.81378814      20.48385686       0.07822752      -0.15024305      -0.32073949      -0.28243314       0.30697282      -0.19519525
H      -42.02547921     -29.11851302      20.58852508       0.14577408      -0.25005629       0.04522197      -0.30389936       0.60480455      -0.12530256
H      -40.35089641     -28.96410473       1.84384614      -0.17746318       0.00822417      -0.11657426      -0.89178756       0.38369696      -0.28306160
C      -64.33654754     -25.22906327      11.53458814      -0.74693571      -0.92693639       1.53871368      -0.40742094      -1.42794874      -2.42977778
C      -64.68288698     -25.82167099      12.75369455       0.19008735      -0.76384028      -0.10709077       0.16892010       2.50950948      -0.23711714
C      -64.39191960     -23.83582162      11.38695630       0.32055610       0.69471352       0.26211570      -2.12741573       1.59006013      -0.10866473
N      -64.07585222     -25.94400333      10.40106478      -0.59618577      -0.04900353      -0.88891229      -1.19210584      -0.21382709       0.41676332
C      -64.90406499     -24.96634421      13.86906430      -0.23204414      -1.17781130      -0.33998910      -0.61200381      -0.04515148       2.10816265
N      -64.95412833     -27.17575419      12.85047809      -1.21940211      -1.48065221       1.15772790       2.75014407      -0.85764012      -0.32043270
C      -64.90777718     -23.52689595      13.80608042       0.33478354       1.46828913       0.49313037       1.89764546       0.96450714      -1.10026948
N      -65.06761308     -25.47663730      15.08612890       0.30655635      -0.50180766      -0.55568520      -0.48670644      -1.90401124      -0.64426723
C      -64.65197787     -22.94184902      12.53423632       0.87302402      -0.92162572       0.07164050       1.25945502      -1.62465889      -1.93392653
N      -64.76534057     -22.62347635      14.94301676       0.62320357      -0.28658899      -0.47227309      -1.61122849      -1.37542358       2.07324483
N      -64.54094417     -21.65416647      12.39862902       0.48434279       0.66045202      -0.23413537      -0.38043081       0.95541459       3.23641574
N      -64.92926204     -23.30178339      10.09269218      -0.76514778      -0.00122414      -0.48154311       1.84461253       1.10811888       1.40441141
O      -65.42894060     -27.60127462      13.83506907      -1.27004223       1.51510324       0.31974334      -3.25890665      -0.85941975       4.21147080
O      -64.48844406     -27.98034076      12.08137713      -0.76260368      -1.43195380      -0.80599869       0.54698897      -0.46192331      -3.39189389
O      -65.25222535     -23.01603736      16.02342722       0.21863038      -1.21035040      -0.26917029       0.31962076      -0.31830045      -0.54457893
O      -64.25715428     -21.50262661      14.93781374      -0.84708254      -0.94895385       0.04992520       0.07303352      -0.34353891      -1.10344813
O      -65.26678794     -23.99927200       9.15735293      -0.40698342      -0.21366481      -1.10852965      -0.24358187      -0.04536041      -0.00417187
O      -64.94280720     -22.06192559      10.02335169      -0.46799842      -0.21229177      -1.51564845      -0.07981318      -0.92529794      -0.84932903
H      -64.29625463     -26.96676644      10.42494912       0.60878000      -0.00240809       0.19020921       0.56697187       1.49832565       0.19123426
H      -64.36713177     -25.39605979       9.56613659      -0.16852759      -0.32297078       0.04193119       0.70372780      -1.18443114       0.59947311
H      -65.31374902     -24.82900490      15.76310385      -0.20072919      -0.12328593      -0.35204246      -0.42063101       1.24950795       1.50632387
H      -65.42541863     -26.43329279      15.21278958      -0.02023212       0.16498737       0.49977643       0.77966387       0.64955240      -0.46335707
H      -64.29329276     -21.19589430      11.56376982       0.09651014       0.04848969      -0.19059297       0.06668657       0.12341602      -0.78519821
H      -64.53253915     -21.22706231      13.35599118      -0.26830329       0.09139819      -0.06161984       0.25990989       0.59092806      -1.75209709
C      -58.92962916     -35.43167407       0.50475556      -1.09440531      -0.39536213       1.26116986      -1.63766418       1.12729186       1.14895689
C      -59.96591419     -35.09098453       1.45152290      -0.80189903       0.02608236      -0.81819067      -0.57771176      -1.66446676       0.54310265
C      -58.96738071     -36.77263812      -0.03402188       1.69026471      -0.59195770       0.05620816       1.62234978      -0.82471756      -0.66003264
N      -58.04411906     -34.52118809       0.13534277      -0.63786793      -0.57196860       1.47181518       0.77707026      -1.02430103      -0.87257745
C      -60.97706590     -19.92372024       2.69593278       0.68103235      -0.73000213       1.16667389       0.76373628       0.13866743      -2.60745456
N      -60.03292968     -33.87958665       2.18025553       1.36891601      -0.30500917       0.12408577       2.60385598       1.22659992      -3.00307663
C      -60.98498908     -21.13629715       1.97483887       0.99264044       0.37638619       0.98488244      -1.62699331      -1.73275351       2.19414659
N      -61.99555028     -19.65696533       3.43050802       1.08889673      -0.62483571       1.80841679      -1.16335557       2.72217089       2.01001269
C      -60.01463968     -37.74443187       0.23229464       0.47395635      -0.98329204       0.80708646      -0.49763463       1.44325509       0.10585453
N      -62.08210609     -22.13298729       2.34444390       1.04187678      -1.54533224      -0.47877731       0.97881662      -0.40384957      -0.66029306
N      -60.23352697     -38.89244598      -0.37603309       0.74387897      -0.04335821       0.97220063       5.14703504       1.04016408      -3.33135497
N      -57.84682545     -37.28085286      -0.75967047       0.39660022      -0.22404121      -1.13597074       1.82559380       3.14294142       0.11046307
O      -60.91147297     -33.60344314       2.93137522       0.50856314       0.44550692       0.12878087      -1.42708841       0.42683919       2.01401870
O      -59.17198775     -33.02600218       1.86966624      -1.42550367      -0.35381806      -0.87686584      -0.15374570      -0.08574219       0.21004531
O      -61.75853618     -23.34680461     -16.53111462      -1.36517433      -0.87431389      -0.69714606      -1.07786790       2.49212337       0.12622034
O      -63.22539054     -21.70797264       2.41578453      -1.19117015       0.52597967       1.24609906       1.10023511      -0.58636803       0.35218179
O      -56.79935787     -36.48644284      -0.98853084      -0.24186158       1.21533281       1.40699302      -3.11715385      -2.46119170       0.64796690
O      -57.83699393     -38.43497182      -1.12005148      -0.09421939      -1.29550863      -0.89661811       0.77984566      -0.29878463      -0.56872852
H      -57.29391964     -35.06660897      -0.33347259       0.26138201       0.05775349       0.12409506       0.02128622       1.43759798      -0.21675107
H      -58.14861317     -33.50077841       0.26521346       0.06137638      -0.18096468      -0.16356165       0.14356962      -1.62343112       0.46845342
H      -62.69938101     -20.32170823       3.58295313      -0.35202171      -0.06184406       0.09096248      -0.89795907      -0.66165103      -0.04674509
H      -62.16699766     -18.67541037       3.72374787      -0.37282679      -0.11293531       0.03394960       0.47091938      -1.40352858      -0.05004131
H      -59.42704693     -39.15976738      -1.02209333      -0.06513934       0.24785721      -0.17933767      -1.89974240       0.14311066       1.36736593
H      -60.77091434     -39.57591666     -19.02888284       0.01311258      -0.23220800      -0.12908550      -1.69167967      -1.95247630       1.06302690
C      -45.02508866     -18.33834963      28.83020199      -0.61800952      -0.39465949       0.17665343      -0.78508849      -1.80489710      -3.05861174
C      -44.60710069     -19.66043858      28.99030798      -0.62029912      -1.02954656       1.32007010       0.38384428      -0.70811708       0.25280580
C      -45.19544396     -17.50800696      29.86619094       0.75928160       1.43646781       0.03607461       0.52796520       1.48651033       3.26860514
N      -45.43365994     -17.88943704      27.66200662      -0.55473464      -0.88732157      -0.03401150      -0.57356958       0.76062153      -2.97812092
C      -44.25603780     -20.16363296      30.30108716      -0.81711838       0.86547254       1.64828303      -0.51227428      -1.29498614      -1.55339010
N      -44.80597439     -20.65049847      27.84557971      -0.91200409      -0.00584063       1.38377403       0.57267636       2.72480194       2.93797030
C      -44.23433817     -19.26568053      31.37865987       0.44372254      -1.31525460      -0.81209294       0.59503220       2.20312419       0.30714886
N      -44.03205463     -21.47180320      30.44559688       0.50695016       0.40496686       2.10748432       0.12717107       0.45152147      -0.71450176
C      -44.69502110     -17.87642556      31.13451255       0.79311630       0.18686946       1.70818843       0.36063471      -0.08237286       3.42462905
N      -43.53718755     -19.57026095      32.67088349      -0.41651035       0.11663597       0.38040646      -0.02933185      -0.34980149       1.54728136
N      -44.79766395     -17.03479725      32.22614348       1.28598270       0.60239117       0.17991054      -2.86320409       0.07621224      -4.76416995
N      -45.86120470     -16.26154127      29.68349638      -0.22090923      -0.38692664       0.92426471      -2.70162185       1.67580382       2.86120957
O      -44.61013723     -20.33129424      26.71069073      -0.13350366       0.84425062       2.05517959       0.28622616       0.39940431      -1.44910193
O      -45.18858389     -21.70725800      28.22988502      -0.87524009       3.56928536       0.04561416      -0.85457776      -2.52573469      -0.54389479
O      -43.08527807     -18.63310730      33.33299287      -0.82855230       0.62560534       0.16488935      -0.36183645      -0.67669382      -1.35340290
O      -43.44845710     -20.73068408      33.14429484       0.13197656      -0.17269358      -0.31486681      -0.56848334       1.36026865      -2.10572677
O      -45.65079089     -15.38054817      30.55217274       0.33725428      -0.63483706      -0.93399248      -0.12531151      -0.80421668      -2.46268248
O      -46.89283262     -16.17065645      28.95161429       0.17009463       0.70247432       0.26030970       2.12344064      -0.16953640       0.48504707
H      -45.97717140     -17.04146468      27.46471027       0.41338107       0.12666750      -0.19949508       0.63260314      -0.71880204       0.95763778
H      -45.20167537     -18.37367610      26.82302326       0.20570166       0.03837617      -0.11397047       0.19786940      -0.58662800      -0.13742122
H      -43.72413685     -21.80771887      31.29594425       0.36381660      -0.24627466       0.16288283       0.71702505      -0.45018078       2.10905933
H      -44.03161737     -22.13254076      29.68770529       0.05601765       0.00730566       0.02938439      -0.23670862       0.47598751       0.01312038
H      -45.43030962     -16.25132745      32.21486683      -0.42379381       0.00779212       0.27441794       0.35708185      -0.11243925      -0.84525530
H      -44.33740424     -17.05940990      33.02902775       0.35277451      -0.38447164      -0.11780967       2.81706224      -1.48599084       3.70504130
C      -20.02885160      -9.72798426      10.21055307       0.28272330       0.38217060       0.05777977      -0.87375115       1.49227484       1.18343342
C      -19.90846489      -8.95261483      11.42878666       0.25159683       0.19806008       0.21751833       0.21062768      -1.23430299      -0.57288635
C      -20.84217132      -9.19554378       9.17377831       0.37987129       0.70377364       0.09727733       1.42868464      -0.88709742      -1.52479691
N      -19.50355121     -10.91414113      10.04002010       0.40760673       0.13979921      -0.41256988       0.28565848      -1.34101706      -3.61522584
C      -20.67484447       8.38165692      12.55470160      -0.52434293       0.56741493       0.65419697       0.11777847       0.67911868      -1.28548028
N      -18.98189794      -9.50657876      12.39734975      -1.36836275      -0.44806981      -1.03771702      -0.55002697      -1.67789266       1.99432898
C      -21.34160314       8.88665655      11.38882073       1.12579227       0.01755657      -0.30652457       0.64258896      -0.05416495       1.58080081
N      -20.69463148       9.05065175      13.71803159      -0.69824100      -0.15723928      -1.24106018      -0.67044136       0.86802150      -0.76700950
C      -21.31465533      -7.90815318       9.22801578      -0.95023509      -0.26714547      -1.08188288      -2.59616935       2.59981868       1.13980140
N      -21.87740046      10.25915319      11.51030675       0.31851583       0.90966946      -0.85281582       1.56997700      -1.35840258      -0.96739475
N      -22.00301085      -7.26589784       8.27989154      -0.23556057      -1.06238851       2.07990031      -0.15253163      -0.86287679      -2.73668242
N      -20.53633218      -9.63405710       7.78211944      -2.18877275      -0.60982728      -0.11683985      -1.01216968       0.91614824      -0.75191990
O      -18.44470801      -8.82602477      13.24668997      -0.49186845       0.19307922       1.22795822      -0.01760402       2.51942867      -0.00889605
O      -18.80731367     -10.73178395      12.53038224      -1.46748243      -2.19863392      -0.77980452      -0.52525302       0.05685314      -1.82732963
O      -22.39661972      10.56080019      -6.48493343       1.18879075       0.42922303       1.01126104      -1.03837413       0.61634557       0.99807327
O      -21.67487349      11.03737161      10.59699619       1.24089234       0.21257454      -0.58235070      -0.41351192       0.38781530      -0.20632657
O      -19.37756756      -9.81417143       7.49178683       0.15042188       0.02300538       1.58290488       1.06312499      -0.19584673       0.36067483
O      -21.39846273      -9.60827282       6.88836011      -0.73485052       0.02359526      -0.58089095      -0.16498167      -0.23807076       1.52497239
H      -19.33639396     -11.29563051       9.08838773      -0.13960924      -0.12398688      -0.12088799      -0.64790163       0.90206713       0.87685427
H      -18.98730567     -11.41969540      10.66987372      -0.01885924      -0.40841584      -0.27712606       1.04773887      -0.43330659       2.46964459
H      -21.09881475      10.01951271      13.78525806      -0.09765692       0.26122350       0.13558959       0.58012217      -1.91125354      -0.14912184
H      -19.95514768       8.79414563      14.30335200       0.14964550      -0.16901620      -0.36262566       1.03131937      -0.19928633       1.21277677
H      -22.11921729      -7.64658040       7.33082029      -0.08609672       0.20705039      -0.26370863       0.14862334       0.07805474       1.07229168
H      -22.30412254      -6.30673820     -10.67678598      -0.02760510      -0.03378514       0.30262375       0.54409705      -0.23090582       0.36291080
C        7.27109939       3.55965581     -14.19884024      -0.19780758       0.52333001      -0.15293993       0.34377196      -2.80018897      -0.69236280
C        6.08862750       4.24833217     -14.60591954      -2.13722228      -0.02972021       1.31967561       1.85778002       1.21935582       2.13443052
C        8.40754080       4.30125473     -13.79005146      -0.11032390      -2.15725890      -0.05764894       0.65519826      -2.32036758       1.37208836
N        7.27211457       2.15450266     -14.26130883      -0.30354281       0.26319763       0.32963486      -0.78260684       1.29356286      -0.13931644
C        5.81009938       5.56411242     -13.99592579      -0.66587481       0.07124614      -1.25825743       1.11722553      -2.55024011      -1.65496060
N        5.18097574       3.60693612     -15.44833894       0.19821975      -0.97077583       0.04893940      -1.77058332       0.93121423       2.07868320
C        7.00516184       6.25881965     -13.56001722       0.60735516      -0.17645195       1.11824948       1.33986909       0.38211876      -0.02183647
N        4.54970295       5.92583968     -14.02570775       0.64222278       1.30071342      -0.67624785       1.06700430       3.78232979       1.68769839
C        8.34780692       5.68362220     -13.73991537       0.50251240       0.64771782      -0.77705065      -4.31406309      -0.30843680      -0.15911817
N        7.00682510       7.67144456     -13.22595032      -0.33179735       0.66368301       1.07417171      -6.87749226      -2.04505921      -3.01418269
N        9.35193905       6.40625904     -14.03844674      -0.19524995       0.32123599       0.20161838       3.32005459       2.69561366       0.26848562
N        9.66524054       3.60129545     -13.46925557       1.57316875       0.24866738       1.58375470      -0.85339712       0.55499923      -2.98047372
O        5.53258234       2.79109587     -16.22061502      -0.12856387      -0.78014411      -0.36772959       1.74060757      -2.42651952      -2.69360983
O        3.99163232       3.86211832     -15.30881251       1.27018570      -0.46542476       2.41408376      -1.34241527       0.50152159      -0.10712453
O        7.86261186       8.22911782     -12.68144303      -1.55786645       0.38264761      -0.58241496       3.50833588       1.69239777       1.68163627
O        5.90795436       8.23310851     -13.54622725       0.57774426      -0.85552852      -0.93002861       1.63960069      -0.28222266       0.71728122
O       10.68261556       4.20538000     -13.18805965       1.02110450      -0.26501315       1.28903091       0.33202219       1.38617630       1.03109519
O        9.71037866       2.42895103     -13.74626925      -1.25097979       0.99627722      -0.19947246      -0.02544649      -1.62869717       0.65068032
H        8.04335136       1.50038763     -14.24601330       0.23655855       0.13995888       0.14485546       0.31374738       1.15259009       0.24563955
H        6.38441942       1.67603354     -14.26347594       0.50593496       0.14427517       0.57179966      -0.05589053       0.65783243      -0.36707307
H        4.35841536       6.86603205     -13.70199575      -0.03350130       0.04787811       0.03037773       0.15151469      -0.13085308       0.02069852
H        3.79464425       5.39322522     -14.33820512      -0.40402394       0.01051312       0.21545082      -0.69031307      -1.43892304      -0.65653925
H       10.28273825       6.00319363     -14.01549391      -0.04791955      -0.43683333      -0.18208055      -0.36234474      -0.03570720      -0.03908892
H        9.27976956       7.41245224     -14.13418326      -0.10190259      -0.21271071      -0.16169781      -0.03863368      -0.51649415       0.26073227
C      -39.80048782      23.73176018      27.77861137      -0.14290669       1.71737536      -0.37174938       0.25664683       1.07949677       1.28216398
C      -40.02882500      22.38224835      27.63294097       0.01443810       0.96937702      -0.99508459      -1.20716195      -0.65490532       0.98462552
C      -39.23698999      24.18821042      29.02844722       0.09838420      -0.24477702      -0.61330889      -0.39422422      -1.42163750      -0.88465713
N      -40.17011008      24.63044689      26.87362024       0.87949556       0.72562661      -0.22578267       0.11565482       2.29059903      -0.60821963
C      -39.97328918      21.37250733      28.67670587       0.09302618       0.34046919      -1.24415173       0.64927419       2.35195604      -1.91883644
N      -40.66004386      22.01741173      26.37483122      -1.22890098       0.78037434      -0.22424383       0.49682134      -0.59944334       0.19647991
C      -39.42682647      21.85629678      29.85892749       0.72480126       0.91295156      -0.39747160      -0.88910727      -0.96056880      -0.26210897
N      -40.49036292      20.17680881      28.46098334      -0.22660964       0.23904978      -0.57106255       0.19044197      -0.53116497       0.81901005
C      -39.23188013      23.21272288      30.06940134       0.94445632      -0.17257365      -0.83530554       0.38515669       3.31214128       2.54382174
N      -39.45899106      20.95763268      30.95423140       0.71713241       0.44729839       0.40982383       1.90107827      -2.43236069       0.61657218
N      -39.08392167      23.64432285      31.34926995       0.02471851       0.73838989       1.33964668       0.98619771       2.28668076      -1.18790838
N      -38.91841737      25.55400327      29.25647926      -0.59608173       1.11791080       1.99209227       0.61911748      -0.99621600       1.84256909
O      -39.96469313      21.25559951      25.75872540       0.55229359       1.49271817       0.17395053       0.75169508      -1.49910029      -1.00409952
O      -41.73437189      22.40236139      25.98618326      -0.60736697       0.97171029      -0.39285701      -0.52730408       0.89079171       0.38895291
O      -38.99696718      19.79517309      11.74514268      -0.79639815      -0.45305543       0.13980204      -0.97464609       1.35391839      -0.44591652
O      -39.80605632      21.30832942      32.05137322      -0.09719388       1.54700250      -1.14382512      -0.64484054       0.21198815       0.66856516
O      -38.70970158      26.32871714      28.34897698       0.08369376       1.19007242       0.69848244      -0.49372097       0.32450634      -1.25515396
O      -38.75101192      25.90921918      30.42841054       2.00983516       0.20451058      -1.40343212      -0.06583375       0.69888377      -0.32672230
H      -39.97599508      25.63591465      27.10551958       0.01712435       0.04978805       0.29501231      -0.20480460      -1.69196733      -0.53455819
H      -40.84773448      24.45006453      26.15182969       0.18936303      -0.18573439       0.19240491       0.21042357      -0.24954722       0.19205065
H      -40.31042504      19.41470292      29.10507877      -0.09981820      -0.22948630       0.08917997       0.07009578       0.25722785      -0.16345543
H      -40.57796740      19.98305198      27.50355972       0.23535146       0.32316382       0.01054607      -0.38287568      -0.83571801      -1.11508818
H      -38.92720004      24.65512206      31.59984805      -0.36018171      -0.19800708       0.01530043      -0.33762464      -1.88363328      -1.13223042
H      -39.34063348      23.03901853      13.01340301      -0.05753922       0.09961228       0.02241510      -0.42846467      -1.49834461       1.69169785
C      -89.17974396     -31.71428837      34.87533311      -0.57779606       1.09394557       0.96423354       0.77082735      -1.26752909      -0.40396912
C      -88.58434145     -30.50356905      35.07464709      -1.49348514      -1.71678034       1.02655190       1.33426833       1.22004118      -0.22161560
C      -90.59458230     -31.70367668      34.62051269       0.77004023       0.37798540       1.76605126      -1.67883654       0.55222291       0.51937279
N      -88.43649531     -32.83620554      34.87919885      -1.29743042       0.24344729      -0.83688962      -2.68819272      -0.74598717      -0.14042013
C      -89.30423636     -29.27696667      34.88137445       1.27866692      -0.03618097       0.67279956       3.47891142       1.38117543       1.20905745
N      -87.12213153     -30.50561748      35.43998135       0.36121098       0.48757087       0.19230963      -1.23877552       0.83444698       0.27117865
C      -90.58645995     -29.28149804      34.44289749       0.97069344      -0.26143645      -1.10090195      -4.21240496       0.05692387      -0.59095330
N      -88.63427734     -28.10999821      35.10686738       0.73462518       1.17021659      -0.49060270       0.75644285      -0.50243822       1.51874257
C      -91.34497537     -30.48839880      34.37826565       0.85787967      -0.22798978       2.52920885       1.37406267      -0.00977360      -2.11611825
N      -91.46185845     -28.04955036      34.44356478       0.68001956      -0.54155328      -0.44853899       1.48934894       1.25313822       2.36451864
N      -92.57232066     -30.51837553      33.74200047       0.28773074      -0.55538383      -2.34410857       1.24550821       0.32005604       1.34977497
N      -91.37138030     -32.83924193      35.04063499      -0.51835314      -0.76906480       0.13882199      -0.71739107       0.62814543       1.01282139
O      -86.76837856     -29.57508036      36.12838427      -0.48767291      -0.38155104       0.52675206       0.28584873       1.15394106       0.80242806
O      -86.30872417     -31.35895587      35.14369528       1.71540679       0.17499494       0.10876813      -0.55307677      -0.83348073      -0.88159100
O      -92.65801606     -28.14688935      34.28005550      -0.68304364      -0.11360194       0.86529921       0.30806204       0.54361968      -0.50200381
O      -90.96100690     -26.96827393      34.85094843       1.88226031      -0.51255334       0.68976294      -0.42141334      -1.55870621      -1.32854879
O      -92.57497826     -32.70650459      35.34752956      -1.20267071      -0.91191128      -0.43104628       0.55233688       0.51566747      -0.95902932
O      -90.82026633     -33.89528317      35.24359221      -2.88841502      -1.05091369       0.93509733       0.66005782      -1.13871050      -0.34439268
H      -89.05600111     -33.62806802      34.95898574      -0.11784669      -0.32695434      -0.22979446       0.47230193      -0.43316300      -0.03906049
H      -87.49179957     -32.94172651      35.15688431      -0.20222262       0.01231663       0.07398839       0.53655595       0.55944425       0.13442461
H      -89.13219953     -27.24619404      34.90926084      -0.15629918      -0.19758546       0.15997385       0.04023962      -0.50376335       0.47898199