1296
Lattice="-47.76533258762915 4.8026125707765654 25.340188672321393 0.0 14.672268388770682 8.565709790885371 0.0 0.0 -27.21169911863183" Properties=species:S:1:pos:R:3:momenta:R:3:forces:R:3 energy=-1487785.0579298383 free_energy=-1487785.0579298383 stress="0.005581843618682329 -3.187711198886312e-05 0.0009938399603937242 -3.187711198886312e-05 0.004927853392254722 -0.0017706338902188797 0.0009938399603937242 -0.0017706338902188797 0.0058894033220233686" pbc="T T T"
C      -28.13056238       7.60405352      10.36740753      -0.51525000       0.57826142      -0.04418066       1.67496394       2.10059799       1.95870310
C      -29.05104206       7.63751462      11.41601544      -0.97160517      -0.46987301       1.07045775      -1.33240203       0.57250544       0.66181260
C      -28.51562149       7.23909643       9.13351141      -1.19901875       0.03321690       0.53684829      -1.45509982      -0.78641681       0.44312405
N      -26.86853484       8.11466188      10.57179798      -0.64885311       1.21626181       0.47913653      -1.38253414      -2.66938818      -1.82051185
C      -30.43289260      22.10081697      19.75952207      -1.50284232       0.06230032      -1.04188400      -3.58454273      -1.29952765       0.21869646
N      -28.64814770       8.06684571      12.72563111      -0.86534172      -0.75363431       0.38044475      -2.20813741      -1.63684260       2.11036609
C      -30.90002776      21.91469096      18.39301673       0.98721881      -1.32065158      -0.10873342       0.82320812       0.81446779       2.76705121
N      -31.40601178      21.86672553      20.79985332       1.58814490       0.42500688      -1.55301871       0.27088274       1.18565280      -2.51227071
C      -29.91431273       7.21531269       8.84034290      -0.52148548       0.26478760      -0.36768498       0.08314567      -0.40189161      -1.25615045
N      -32.34721609      21.90050704      18.05066685       0.76228221      -0.69611622       0.35137308       0.74917064      -0.29935489       0.37913385
N      -30.27892237       7.22456066       7.58434180      -0.25961324      -0.82025065       0.75758951       0.93122303       0.00569413      -2.51932258
N      -27.46157022       7.03767338       8.17888716      -1.64933112       0.54676562       0.18944080      -3.14474424       2.80344401      -3.60152099
O      -27.83089443       8.94158235      12.93317344      -0.57335414       0.05486788      -0.05506069       0.54194584      -0.45891657      -0.60155145
O      -29.27886399       7.49378838      13.67285631       0.46300784      -0.00736796      -0.33945426       1.77730886       1.23729079      -1.44538290
O      -32.64948718      21.19214924     -10.11584388       0.67590360      -1.11041383      -0.36340251      -0.36657374       1.06892015       1.34712545
O      -33.12929119      22.57773206      18.75236997      -0.04984447       1.53611954      -0.49877935       0.87199990      -1.27685208      -1.36532299
O      -26.67856083       6.17124578       8.29697008      -0.69702785       0.27827949       0.39244115       2.01079054      -1.47617287       0.79045063
O      -27.56605328       7.78333093       7.16103301      -1.69282148       0.58614066       0.18900751       0.65035225      -1.03807440       1.24049599
H      -26.20205781       7.67464996       9.98229126      -0.31984623       0.02246240      -0.01448282       1.07966564       0.54763332       0.13609440
H      -26.71524569       8.77170419      11.25834927       0.59025029      -0.04851895       0.21435351       0.75540732       1.03853845       1.46043216
H      -32.40990728      22.13713511      20.65245792       0.19627225       0.00707033      -0.33494253       1.80127474      -0.44930014      -0.57784332
H      -31.08940411      22.20442746      21.66434330       0.03955565      -0.27807800      -0.07892151       0.39425377       0.03592072       1.31510421
H      -29.58876185       7.37899035       6.86477395      -0.27264133       0.10439036      -0.29255105       0.12298103      -0.12817928       0.32350348
H      -31.14702300       6.91529794     -19.98574596       0.37733104      -0.10737336       0.39808557      -0.97337752      -0.05808986       0.34773472
C      -51.13441896      10.83586038       3.25208609       0.29393553      -0.74359302       0.15230922      -2.38695301       0.54592801       4.76800810
C      -51.34066719       9.63582412       4.05674194      -0.08617253       0.75562825      -1.75773374       1.28796879       0.06316310      -1.52069954
C      -51.36181719      12.13966911       4.02065264       0.31379396      -0.28781929      -0.90238786       0.62041330      -1.52888410      -2.71331755
N      -50.94379214      10.82560733       2.00406695      -0.38618288       0.77183253       0.30565941       1.81565716       2.59678666      -2.71287991
C      -51.50340261       9.64961742       5.47961613      -0.16717646      -0.66284116       0.33472843       0.73774552       1.67654296      -1.18087073
N      -51.19311606       8.35465752       3.31849094       1.01990193       0.52348794       0.00569394      -2.82328881      -0.11926283       2.40263866
C      -51.48846207      10.94551141       6.15490222      -0.07854623      -0.88963045       0.17644685      -0.11992118      -1.02495424      -0.14202403
N      -51.61296471       8.50145361       6.06537595      -0.24544669       0.55988344      -0.11778886       0.04936095      -1.70649314       1.24729791
C      -51.41025075      12.18867331       5.43161686      -0.34099051      -1.33039758       0.43504554       0.78608364      -1.39634150       1.68183307
N      -51.39246867      10.95566633       7.62077018       1.65925519       0.51254543      -0.20590288       1.82326050      -0.94363063       0.91347314
N      -51.15769993      13.29831011       6.12836321      -0.06289941      -0.08355418       0.70031039      -0.93318975       0.01389782       1.60762518
N      -51.31427409      13.37961090       3.28758517       0.86854443       0.80397802      -0.91414398       1.03714703      -2.59396886      -1.29399761
O      -51.31200876       7.26854952       3.92458445      -0.23160981       0.30496196       0.04402107       0.77605241       0.42472032       0.04366417
O      -51.26421566       8.35071867       2.12416982      -1.04415529       0.25980768      -0.58449282       1.09189910       0.37997291      -1.94113997
O      -51.94407883      11.82017090       8.29429161      -1.43848036      -0.16105293       1.11611555      -0.16573967      -0.06187672      -0.82355203
O      -50.61563667      10.12520599       8.18249540       0.35494826      -1.43723291       0.24329844      -1.73495458       0.91215243      -1.53139274
O      -51.08308704      13.46859246       2.06522530       0.40544155      -1.27178797       1.08311571      -0.29816408      -1.10895733       0.22397207
O      -51.40758466      14.35775601       3.93950466      -0.29486089       0.64893642      -1.47336795      -0.74941840       3.85351222       1.38713670
H      -50.80416737       9.96549964       1.49594461      -0.33933188       0.07965280       0.17914545      -0.30056059      -0.20764197       0.00808720
H      -50.71515672      11.77975411       1.60765794       0.25523946      -0.26600227      -0.15568372      -0.64907571      -1.28633586       0.19076935
H      -51.36121318       8.45830667       7.02825524      -0.18175855       0.02139216       0.31182819      -0.25092514      -0.00419182       0.60508651
H      -51.59572436       7.61650397       5.50589141      -0.14570179       0.05909073       0.40732355       0.05548763       1.24187932       0.39610229
H      -51.30736349      14.12238578       5.57011018       0.19236877      -0.24404217      -0.29915094       0.25364921       0.53494999       0.27714750
H      -51.28090143      13.31851410       7.17340860       0.35771632       0.27861191      -0.38329926       0.03065572      -0.20889073      -1.95700900
C      -48.20271123       6.53045654     -27.19673191      -0.27201503       0.00294450      -0.57157249      -0.68730221      -0.56901380      -0.96213003
C      -47.54184050       5.42317470     -26.71389232      -1.66901965       0.74027869      -0.17439032       0.70603916      -0.26175056      -0.04744083
C      -49.43134458       6.26662044     -28.02597624       0.06612684      -0.29115720      -0.86406125       2.90829700       1.51603797       1.22956254
N      -47.78192040       7.79802235     -26.97397740      -0.21854448       1.92586320      -1.22820386       0.73895537      -1.49636517       1.23098009
C      -47.83174595      18.74724812     -18.54365909      -0.57766520       0.01372341      -0.16480703       1.60516502      -0.07433376       3.24416757
N      -46.44357278       5.68860568     -25.69159438       0.96330092      -1.63929579      -0.70830081      -2.92087167      -0.36164727      -0.59863497
C      -48.74027404      18.61094508     -19.59854901       0.34020616       0.42209007       0.29877110       0.11173900      -1.30279043      -0.36017466
N      -47.23473114      17.75946508     -17.77337648       1.13031021       0.15390283       0.50400144      -1.09787511       0.77274392      -1.78561520
C      -49.53323452       5.05408598     -28.66808965       0.38883276      -0.34033860       0.25376264      -1.60464522      -3.25008063      -0.81507100
N      -48.89010494      17.24776407     -20.08159339      -1.26192009      -0.77341894       1.03020128      -0.08629874       1.36288784      -1.78231585
N      -50.46438041       4.77448571     -29.60709316      -0.30181218       0.55909897      -1.44029179       0.85991091       2.04947407       1.19637738
N      -50.35256989       7.28773446     -28.14890444      -0.17715733      -0.01273524       1.25145840      -2.07186662       1.79343328       1.81257247
O      -45.52689260       6.36392342     -26.01991820      -0.07235181       0.57040418      -1.28982503       2.07960391       1.21963206      -1.02905311
O      -46.66232229       5.32494371     -24.56452656       0.23070245       0.04935502       1.62607706       0.00814900      -0.91565892       0.91847849
O      -48.15689806      16.37301249     -46.77754949       0.41960714      -0.37862758      -0.17131158      -2.23117267       0.26436452      -1.81992074
O      -49.62656143      17.09076906     -21.11706500      -0.89595072      -0.04143189       0.27878088       1.92144907      -1.30308297       2.66124765
O      -50.09357579       8.42763929     -27.61698575      -0.16473860      -1.21071791       1.24617713      -1.26388057      -2.01428252      -1.52172855
O      -51.52555143       7.04881975     -28.52355489       0.29069652      -0.07476841       0.81112210       1.42964902       0.23748572      -0.51410337
H      -48.60151698       8.35106872     -26.88416537       0.16595954      -0.10164955       0.10748706       0.06107935       1.55673493      -0.09946427
H      -47.05014038       7.87199692     -26.27020577       0.08237784       0.20005280      -0.24058492      -0.42664974       0.40171065      -0.45261361
H      -47.37200498      16.79215905     -18.09858940      -0.11053592      -0.32008282      -0.01043639       0.43656408       1.04560803       0.61939203
H      -46.70610750      18.00526840     -16.94935981       0.24416021      -0.02156986      -0.04680476      -0.27356935       0.01472928      -0.32298828
H      -51.05084889       5.57909988     -29.83073775      -0.13031468       0.48868953       0.08513805       0.00900141      -0.87275992      -0.33901280
H      -50.46869706       3.83013239     -57.17206362      -0.08446041      -0.09792616       0.34572935      -0.41118787       0.20091164      -0.27435480
C      -33.89542260      -1.82263062      14.14082680      -1.17749521      -1.00321861      -1.33294137       0.57029063       0.30211675       0.53056315
C      -33.97064682      -1.16443725      12.91128096      -0.23825024       0.03125161       1.02585110      -0.84780054       0.91593859      -2.11560657
C      -35.11629567      -2.55989817      14.55319307       0.02316686       0.55491503       0.07630250       0.11051826       1.20954716       1.11630730
N      -32.76069097      -1.68359708      14.85056399      -1.09754267      -2.41658504       0.23574309      -2.30730997      -1.29488591       1.39647724
C      -35.14136319      -1.33643357      12.05938759      -0.63245283      -0.27006175      -0.23512369       0.39726842       0.78515741      -2.36061194
N      -32.90781391      -0.27188982      12.41036745      -0.42258430      -0.09919317       0.71907917       1.23047295      -1.39216714       1.01078111
C      -36.03298979      -2.37107987      12.30090796       0.40097430       1.73344101       0.40861680      -0.77285619      -1.71704833       2.77398338
N      -35.27416467      -0.63810605      10.89277292       0.43459198      -1.06813653       0.97039935      -1.00180100      -2.04120259       1.82325579
C      -36.09819427      -3.02744489      13.63300181      -1.97033858       0.33278047       0.49784984       2.07719577       2.58632486      -1.48297966
N      -36.95547317      -2.84940495      11.34663655      -3.47705360      -0.41155481       0.03192575      -0.97590423       2.00974317      -4.02206459
N      -36.98785318      -3.93166040      13.90852074      -1.41538199      -0.44382235       1.02428506      -0.67497699      -0.44587286      -0.36087676
N      -35.52460082      -2.44280826      15.94975430      -0.19383382       0.26992230       0.23856752      -0.24867544      -2.23584097       2.64351744
O      -31.76336078      -0.34122070      12.90597895       1.27019310      -0.51460801      -0.21078420      -1.36606858      -0.07533271      -0.25317426
O      -33.10857067       0.46072091      11.46471597       0.14217859      -0.04010604       0.46652097      -0.09196922       0.61330819      -0.10190459
O      -37.46977490      -2.15454712      10.40666879      -0.79285753      -1.36105936      -0.74010233       1.47626233       1.21299635       2.30866197
O      -37.19527952      -4.01984913      11.25864940      -0.27677198      -1.17669032       0.01260993      -0.14557903      -2.78631512       1.93274471
O      -36.72939414      -2.52880948      16.32513873      -1.06440686      -0.45515861       0.81512818       1.81911674       0.36269572      -1.95030065
O      -34.64426532      -2.45104065      16.83966359       0.95051012       0.41631284       0.76787730      -0.26656646       0.77168543      -1.69159891
H      -32.77160216      -2.05013122      15.80146200       0.16273754      -0.01158298      -0.22476536       0.11443196       0.06306610      -0.55067220
H      -31.93723866      -1.33192952      14.40861212      -0.23074530      -0.00431953       0.07963860       0.28421745       0.33085062      -0.14251972
H      -35.98999461      -0.69900843      10.20208293      -0.13956288       0.04202239       0.20858033      -0.66197291      -0.75272749       0.48536396
H      -34.60966305       0.02995351      10.80026710       0.03818694      -0.14682629       0.12664515       2.01662493       2.40181792      -0.80515139
H      -37.22975103      -4.25939810      14.81537878       0.09940374      -0.08049616      -0.18004580       0.15674002       0.09762886       0.64356932
H      -37.49009010      -4.23789106      13.10468791       0.10403497      -0.25805054       0.03581874      -0.74186368      -0.56357245      -0.15814867
C      -20.92181883       3.91268335       6.73938300      -1.04329634       0.14078883       0.67668055       0.53278516       2.70855032      -0.79100567
C      -21.70334625       3.15354890       7.56768884      -0.56267616       1.11024450      -1.25293670      -1.45147385      -0.42077378       3.13337569
C      -20.02424847       3.23148516       5.92873835       1.40463453      -0.65655808       0.32296594       1.86969573      -1.24314583      -1.71827003
N      -20.96777454       5.27176891       6.68947900       0.70063529       0.61383326      -0.40894859       1.55598866      -1.30700160      -1.61913993
C      -21.57458756      16.39489082      16.26606169      -0.03993353      -0.68408638      -0.47007368      -3.14927451      -0.09756369       0.86435427
N      -22.58900512       3.91160430       8.60466033      -0.49389131       0.23334932       0.25328887      -0.19375564       1.62334542      -3.80302386
C      -20.70522765      15.71163933      15.45633960       0.32504079       0.63902624      -1.06496677       2.06585392       1.42227160      -1.76548176
N      -22.56599865      15.68776074      16.94396845       1.53000675       0.37678205      -1.66386913       1.59823357       1.97241423      -1.46799183
C      -19.91349173       1.81043356       5.90224112       0.02664653       0.13106687       0.67222926      -0.84494115      -0.37827371       0.64888365
N      -20.49723575      14.32622652      15.62011560       0.58091872      -0.05350988       1.15853363       0.11144113      -1.20911730       1.79360659
N      -19.23333890       1.17177651       4.94744276       1.03761162       1.15361587      -0.31034169       0.59775260      -2.02182590      -0.13185359
N      -19.10364358       3.95696806       4.96806558      -0.29387110      -0.42133566       0.31311239      -0.54830700       0.14819694      -0.70355814
O      -23.01245918       5.05492393       8.34144325      -0.39615456      -1.30774382       1.20829614       1.31993594      -0.56123954      -0.52631246
O      -22.98927243       3.37631123       9.56802779       1.78424683       0.29313672      -0.94763350      -0.28647621      -2.43726728       2.85454179
O      -20.03756599      13.64683125     -12.48611671      -0.78922838       0.95626231       2.23056130       0.64525452      -0.32037165      -1.81745677
O      -20.71120503      13.76459420      16.70447152      -1.36325549       1.78426209       0.80452188      -0.56433920       1.09731948      -0.20344175
O      -19.51299314       4.94922268       4.31333599       0.72034374       1.70423715       0.76610606       0.61255068      -1.59948630       1.68447867
O      -17.98433375       3.46977785       4.79681998       0.03407550      -1.04344491       1.40217312      -1.08768987       0.87109072       0.18619338
H      -20.45473792       5.76403783       5.93439047       0.13212542      -0.21801947      -0.05040227      -0.82592778      -0.72983281       1.23713043
H      -21.54510406       5.71524003       7.34145117      -0.23178241      -0.24838080       0.06488170      -0.85710368       0.99172022       0.52847120
H      -22.49487573      14.73582314      17.13654086       0.07969344       0.00895060       0.18666942       0.69015673      -1.40561429       0.05306294
H      -23.00357679      16.22974155      17.61702042       0.00469808       0.14029404      -0.33896338      -1.14910110       0.83202356       1.38948644
H      -18.43824197       1.53313721       4.48893231      -0.23446991      -0.17091908      -0.35745251       0.31139196       1.32911612      -0.27093250
H      -19.09478315       0.16000340     -22.23076874      -0.05240004       0.31930377       0.12881907      -0.92957284       0.68729678       0.55400217
C       -2.41809677      15.52834705       1.37800003      -0.20261336      -0.31558457       0.41070631      -1.64656779       2.34349567       1.93468173
C       -3.07854834      14.51438886       2.11332384       1.70723452      -0.32725243       0.31080737       0.46275282       2.24767522      -0.63516898
C       -1.67191634      15.26030676       0.26848735       0.39095659       0.64908020       0.46198550       0.45920991      -3.11989518      -2.48719446
N       -2.49305535      16.85732051       1.68715206       1.34854214       0.31144182       0.80573970       0.28073539       0.40603650       0.78266717
C       -2.72137603      13.19186428       1.87910496       1.20751837      -0.27069165      -1.39445465      -1.35706701      -1.65555968      -0.29567387
N       -3.86971632      14.89943795       3.25784460      -0.38667176      -1.04867089      -0.39743992      -0.74675893       1.25447945      -1.54711179
C       -2.13652104      12.89300388       0.60231117       0.65552879       0.66435260       0.96437306      -0.48856647      -0.32006452       1.57726757
N       -3.16247136      12.27757421       2.74168045      -0.82464849      -0.16941220      -0.32951569       0.28412076      -0.73056574       0.56765968
C       -1.70076601      13.91034496      -0.26050224       0.70535120      -1.07535519      -0.31787768       0.55390207      -1.05501529      -1.15706885
N       -1.85056879      11.49258507       0.34508245       0.22880795       0.06351436       0.60237772       0.37133398       1.53633843       0.19088574
N       -1.35436189      13.66559639      -1.56722897       0.23812870      -1.51339004       0.26202017       0.38159252      -0.16043521       0.42143324
N       -0.79597168      16.17050440      -0.31950470      -0.47404744      -0.41743870      -1.23043279       1.28884881       0.54575608      -1.37965327
O       -4.68959355      15.85281260       3.15883861       0.37896559       0.02300398      -0.81798906       1.90657729      -1.83774183       0.63655693
O       -3.69240676      14.20648150       4.23754156      -1.01154771       1.73718678       0.10320679      -0.96609134       0.91939915       1.54475945
O       -2.48644165      10.59181008       0.86446212      -1.00065221       0.57996350      -0.35175548       0.22647092       0.16214247      -0.38575771
O       -0.87497053      11.35540787      -0.36661031       0.46402748       0.42610825      -0.37553712       0.42467689      -1.36231387      -0.77767185
O       -0.43728815      16.08703895      -1.51836715       0.41879584      -1.16990441       0.49847949      -0.57592126       0.26331195       1.67138446
O       -0.30480677      17.02388567       0.42265423       0.06505338       0.01997943      -0.41121022       0.40945521       0.55691030      -0.30066481
H       -1.61076998      17.33084709       1.38648203      -0.03455706      -0.59982872      -0.21143318      -1.53290184       0.05320151       0.82021773
H       -3.08889187      17.24219536       2.43386872      -0.12081153      -0.20668245       0.04443200       0.73487677      -0.79397408      -0.76622357
H       -2.91652815      11.28533948       2.70101650       0.25187645       0.11079749      -0.03275908      -0.27388375       0.94675727      -0.26126923
H       -3.54179794      12.67898008       3.60739695      -0.18177765      -0.25624272      -0.38913938       0.60462361      -0.87189080      -0.65810699
H       -1.13782909      14.54533507      -1.99608603       0.52326068      -0.15382903      -0.22797831       0.19591341       0.01001092      -0.74822315
H       -0.84140041      12.85444193      -1.97033754      -0.19180411       0.49934554      -0.00490948      -1.01480452       0.82613324       1.38375368
C      -33.47427933      30.44728404      44.02030115      -0.00016300      -1.10998363       1.24103014      -1.72926567      -1.21056714       0.92041068
C      -33.81658110      30.68224249      42.63502990      -0.62911814      -0.94276861       0.69886993       0.99333980       2.62243482       1.72226615
C      -32.35122957      31.11279447      44.54028590      -0.10254438       0.11574877      -0.09730629      -0.34156120      -0.95055649      -0.48781288
N      -34.20010311      29.63241910      44.83487542       0.82581287      -0.20450322      -1.72815699       0.34675251       0.22188796      -2.29791224
C      -33.48423073      31.95282483      42.08348610       1.10244337       0.71728762      -1.22831898       2.41830676       1.51734615      -0.14425689
N      -34.81864605      30.04354519      41.98383295      -1.31535767       0.04536304      -0.23000907      -2.98577011      -4.16421618      -1.03414174
C      -32.39086781      32.71869234      42.69756560       0.26520743       0.67340284      -0.63150386      -1.69642443      -1.22435449      -1.22494931
N      -34.12493365      32.44655905      40.99184586       0.22935730      -0.98562323       0.40277264       1.24688645      -0.23174517       2.16186321
C      -31.76411225      32.21549507      43.85083857       0.55467644      -0.49771156      -0.27657635      -1.27558779       0.08031602       0.52031851
N      -31.94091934      33.96454233      42.10922157      -0.41026888      -0.74610958       0.18028814      -0.86897714       0.59864326      -2.37936348
N      -30.77766171      32.89679980      44.35639008       0.00136998       0.65553995      -0.03086299       2.68101623       2.75977489       0.19230631
N      -31.78718672      30.58270182      45.74202303       1.52965793      -0.61801409      -0.25559525       2.59882857       2.55231460       0.00646949
O      -34.75044119      29.99097205      40.72392714       1.00863441      -0.35098399      -1.26071023      -0.82032868      -0.20371289       1.93349023
O      -35.71977382      29.39027740      42.62767493      -1.19883588      -0.24088294      -0.96061428       2.18350827       1.55695590      -1.60986153
O      -31.91989122      34.15444389      13.63678740      -0.53325975       0.67884297      -1.75197571      -0.32875665      -1.17510879       2.23510645
O      -31.67035738      34.89908733      42.83827912      -1.24309684       1.89646700      -1.33208175       0.46196258       0.03787323       0.82693937
O      -30.61527933      30.95101913      45.96970040      -0.77096806       1.68308651       0.34598362       0.12848706      -0.30204572      -0.20384224
O      -32.34060100      29.91594400      46.56721297       0.50633922       1.03603751       0.29218836      -1.54192579      -1.16480844       0.23138116
H      -33.90542223      29.56179542      45.80325219       0.05441578       0.21977922       0.20872454      -0.21466906      -0.25095933      -0.31250753
H      -34.91217587      29.06607293      44.34557671       0.05672900      -0.17687209      -0.26113899       0.51645408       0.67392673       0.82151597
H      -33.61265944      33.16745641      40.53813989      -0.03293569      -0.02019797       0.15839397      -0.13603700       0.28515303      -0.55521297
H      -34.37725856      31.62756180      40.50829346      -0.11629570       0.10105074      -0.11798479      -1.05465503      -0.19888446      -1.97981586
H      -30.11594657      32.50310373      45.00051521       0.15354937       0.34480680      -0.08652120      -0.49844415      -0.24556054       0.28426075
H      -30.62152879      33.87838067      16.81659812       0.00123884       0.32333805       0.56259596      -0.14244824      -1.58253299       0.44174707
C      -63.48984840      14.05779547       9.57606993       0.62922318      -0.19526643       0.03305989       0.06489986      -0.97118766       0.12411302
C      -64.26179332      14.74267875      10.55090135       0.13460514      -0.77073494      -0.12708688       0.81517742      -3.00806715       1.16583112
C      -63.30264173      14.67874475       8.31194129      -0.07085263      -0.03969895      -0.06586076      -1.19835989       1.85521706       1.04557229
N      -63.07993965      12.74090088       9.76393538       0.52613450      -0.71389834       0.41019062       0.47003195       1.74196709      -1.93719247
C      -64.91077533      15.91850073      10.30441012       1.34229665       0.97561637      -0.46478026       0.55247499       2.07849736       0.53365683
N      -64.52385294      13.98383905      11.88623254       0.16463768       0.11472632       0.77455936      -3.83098560       0.21888382      -1.75172469
C      -64.57280847      16.60610800       9.12182850       0.08636859      -0.83190153      -1.64647079      -0.59594832       1.69301047      -3.55223478
N      -65.57003416      16.56108389      11.27905322       1.13666298      -0.44834935       0.39775034      -1.98621786       0.43250248       1.77480378
C      -63.86302413      15.99243887       7.97491241      -0.71001458       0.45896065       0.07737997      -0.23094098      -2.22687958       3.91937712
N      -65.17025657      18.03182507       8.86576374       0.35331533      -0.10034716      -0.47210567       2.51147427      -2.37982678       1.58660377
N      -63.62793749      16.47578937       6.79997951       0.31874913      -0.29261443      -0.25095481      -0.03109657       3.71565910      -2.63745585
N      -62.37524876      14.09111990       7.38643849      -0.30967182       0.93905902       0.12026625      -1.20821661      -0.95329218      -0.41391677
O      -65.74210431      13.92762799      12.23975332      -1.63649599      -0.38706047      -1.53906038       1.87207426       0.90673497      -0.36090830
O      -63.70639853      13.32688972      12.43749900       2.32881305       0.00240656      -0.35233833       1.69972130       0.05553206       0.12564968
O      -64.96126895      18.62783483       7.85974291       0.78111585       0.28426716       0.15174515       0.36071605      -0.00075849      -2.56653859
O      -65.61970238      18.62830536       9.82728077       1.28214010      -0.95494589       0.32094750      -1.24945698       0.56590905       1.35018510
O      -61.25802076      13.88955351       7.83930349       1.10182916       0.16475989      -0.04462939      -0.19660426      -0.36160639      -1.23184588
O      -62.82765524      13.76050396       6.26354266      -0.99765510      -1.84673141      -0.67627720       1.53793420       0.56863263       1.43321403
H      -62.35917478      12.47376585       9.09386239       0.00050370      -0.09153750      -0.08312039      -0.49561414      -0.25902927       0.67423637
H      -62.91402839      12.39061539      10.67055636       0.33960426       0.20984972      -0.32442547       0.06680499      -0.03975489       0.97744375
H      -65.91405072      17.52612065      11.16758358      -0.12015974       0.10383029      -0.29676626       0.57437608      -1.34341738      -0.36602689