1296
Lattice="-45.25967653910688 0.7012953638196835 24.635878861595113 0.0 15.384144641877342 3.451720709890434 0.0 0.0 -31.093303575108937" Properties=species:S:1:pos:R:3:momenta:R:3:forces:R:3 energy=-1487782.533957648 free_energy=-1487782.533957648 stress="0.0020708438488742814 0.00028863146196561384 0.0005054220523651304 0.00028863146196561384 0.0001176909653998632 0.00012016120258381182 0.0005054220523651304 0.00012016120258381182 -0.00014221613026310566" pbc="T T T"
C      -29.02531906       5.29037637      14.12340475      -1.72918103      -0.75769893       0.27686526       0.33824929       0.52174089      -0.65068884
C      -29.18434350       6.43338553      14.91042666      -0.52165425       1.75194635      -0.14290179       1.80109002       0.24049098       4.25805253
C      -28.52345974       4.11251597      14.76509970      -0.99722679       0.05895908      -0.85597693      -0.27609168       0.29104104      -1.01393632
N      -29.23019341       5.45782029      12.82597421       0.56123021       0.75968738      -0.87987679      -0.06178450      -0.46742454       0.01730203
C      -28.85011620      21.83568992      19.79261884       1.87272339      -0.54173591      -0.73743439       0.92350237      -2.79981518      -2.00741551
N      -29.62964005       7.64534463      14.45058439       1.18402405      -0.29807688       0.18094613      -5.59308618       1.35508228      -4.57060111
C      -28.16706194      20.68711347      20.37909996       0.63937384      -0.10467027       0.32209872      -0.98760081      -1.15759328      -2.77256766
N      -29.15435185      22.83678243      20.53142921      -1.98750512      -0.96490334       0.25012175      -0.71649301       1.87098840       0.50169310
C      -28.00824859       4.06014909      16.08131194       0.02763803       0.92832131      -0.07774640       1.46673109       2.12499435       0.96782999
N      -27.67416558      20.71447124      21.67331117       1.07636655       0.48419534      -0.67459641      -0.28604126      -2.92816804      -0.86304965
N      -27.16074846       3.08221651      16.41092078       0.11202922       1.18595941       0.33084645      -0.17899706      -0.99087489      -2.80330880
N      -28.23213106       3.03301548      13.88834669       0.03182959      -0.03702371       0.73549152      -0.61761309       1.85003391      -1.11184270
O      -29.43406416       8.78811433      14.79482761       0.49893932      -0.04590092      -0.16207499       1.98868397       0.19411360       2.07422901
O      -30.55024399       7.55872667      13.53180321      -0.23992968      -1.02192483      -0.84392565       1.78415743      -0.71277879       1.00168133
O      -27.04740318      19.71856022      -9.04824598       0.69127687      -0.60780310      -0.74947625       0.14660034       0.69751417       0.64305086
O      -27.97087352      21.61014365      22.43499612       1.80422760      -0.94355208       0.78739713       0.08382679       1.74565406       1.28277983
O      -27.91026621       1.99907259      14.38194125      -0.68862608       1.15090124       0.14926886       0.42827578      -2.56515554      -0.62479961
O      -28.30039616       3.21931516      12.65558464      -0.84129863       1.00743175       0.25955515       0.17284632      -1.08919324       0.81531519
H      -29.08892624       4.73597114      12.14957345       0.16428982      -0.39506337      -0.24237848       0.33879471      -0.28449235       0.17236057
H      -29.50627244       6.37090689      12.53734854      -0.03929894       0.25034808       0.13911468      -0.63234901       0.35239299      -0.23666632
H      -29.07020409      22.67371641      21.49786403       0.05132737       0.18842209      -0.32447164       0.38208007       0.23461829       1.26550856
H      -29.45344422      23.72816007      20.18366633       0.07623692      -0.21271677      -0.20524367      -0.09881116      -0.02151240      -0.19146281
H      -26.81450054       2.41027333      15.66289880      -0.15083028       0.18041316      -0.07621390      -1.31595545       1.27958518       1.74666285
H      -26.84394732       2.92881716     -13.78499423      -0.31918801      -0.26493843      -0.29728072       0.65134590       0.45712863       1.96779625
C      -48.20465332       5.01446715      -4.66308443      -0.47455192       0.16653902       1.62737425      -2.10510383       0.07845383       0.57585688
C      -49.59984914       4.39119823      -4.68855619      -0.19584560       0.53307575      -1.51230237       3.36428810       2.35111560       2.28652266
C      -47.96589074       6.04033083      -3.65609424      -0.03674416       0.32381838      -0.38634664      -1.28991407      -3.39257104      -1.19296929
N      -47.32245281       4.59602503      -5.57985839       2.09394852       2.24218300       0.50241473      -2.20953660      -0.83633933       2.04084094
C      -50.51848922       4.75645306      -3.65289700       0.11193393      -0.79676461       0.22989213      -2.86955333      -0.09586862      -1.26900284
N      -49.85158270       3.39881293      -5.56757698       1.31444287      -0.73575483       1.09836065      -0.62163157      -3.57645327      -1.32433159
C      -50.27640110       5.88360137      -2.79749033       0.17466348      -0.67770614       1.86843306      -0.56482838      -0.17470956      -0.08420639
N      -51.73246421       4.10410002      -3.72596698      -0.16026034       0.78499472       0.01795542       1.93416895       2.27947447       1.81166512
C      -48.97741968       6.46650868      -2.71363764      -0.02271199      -0.14580481      -0.12498095       1.67167495       1.33794382       0.57474538
N      -51.43173646       6.46742002      -2.03013147       0.08289015       0.03413137      -0.02987051       5.02036994      -0.13809309       2.03876745
N      -48.60391392       7.40529124      -1.76592426       1.42698093       0.62250694       0.62078299      -2.37487102      -3.57833214      -2.50641380
N      -46.58127720       6.32187583      -3.42353705      -0.26256537       0.15537055      -1.76390024      -2.89863714       3.27296957      -0.24646629
O      -48.99574553       3.13357580      -6.45364689      -0.86916385      -0.95055853       1.17265099      -2.02239836      -0.58382596       0.70357012
O      -50.87955047       2.64327840      -5.41669744      -0.74135685       0.99832716       0.97849976       2.37584808       1.01503327      -1.71169416
O      -51.10616567       7.08536177      -0.97924533      -0.74772082       0.25894107      -0.30153580      -0.31936833      -0.41264338      -1.11257926
O      -52.54130448       6.27790976      -2.33308673      -0.78056488      -0.41975306       0.17338398      -3.06474522      -0.44540818      -1.24645085
O      -45.70722964       5.55735336      -3.59494804      -0.70060452       1.89682911       0.44674930       2.14779953      -1.98259777      -0.37224526
O      -46.42563859       7.50466330      -3.12787919       1.72673011      -0.91094003       0.70941103       1.15752645       0.98389338       0.54446415
H      -47.70390110       3.72814304      -6.05029112      -0.36817968       0.14674361       0.06732059       0.89192752       1.44268152      -0.61854417
H      -46.66273140       5.25489296      -5.84378568      -0.31450673       0.10770357       0.15627998       1.52429554       0.63664677      -0.60790993
H      -52.54579557       4.53803235      -3.39063460       0.08248603      -0.22672416      -0.14793070      -0.67439069       0.60292555       0.79420558
H      -51.81060296       3.41160810      -4.42072943      -0.02350037       0.13748696      -0.33009733      -0.07519557      -0.97671839      -0.69417362
H      -47.79914586       7.90924258      -2.00283807      -0.21962238       0.14843174       0.08098770       1.05050437       0.97123974       0.43270087
H      -49.36108432       7.45135554      -1.12752737       0.23177098      -0.19231644      -0.20758545      -0.20578086       1.29005150       1.09582527
C      -48.04803708       1.56225568     -33.46695202      -0.58242730       0.60620886       0.66336012      -0.94069228      -1.23979997       1.67151383
C      -46.86005980       1.89587881     -34.14773146      -0.63083223      -0.43093390      -0.46599775       0.58343045      -0.84668247      -2.34441828
C      -48.07914523       1.74980899     -32.04595971       0.30518655      -1.93632146       0.44287061       0.61324443      -0.22714747       0.93234880
N      -49.06806309       0.90874955     -34.01761353      -1.12579067       1.37896126      -0.76413404       0.07976714      -0.85102066      -3.91398894
C      -45.78901029      18.01767016     -30.17688912       0.57732530      -1.37856540       0.79339268      -0.94537016       1.44768434       3.10954974
N      -46.63567416       1.32879276     -35.47677512      -0.23646629      -0.04391889      -0.17013537       2.36436650       2.64850769       2.65392097
C      -46.03286526      18.42925501     -28.79572960       0.05125206      -0.09175870       0.86910166       2.09746802       0.05507874       0.31067105
N      -44.74708498      18.47852085     -30.78593940      -1.10491928      -1.68051632       1.61724307      -0.17154269       1.05630931       3.68880326
C      -46.95242016       2.44846431     -31.38849473      -1.11107144       0.08372429       0.39655317      -2.90840319      -0.63885685       0.83854536
N      -44.96979338      19.11470402     -28.06856254      -0.51834052      -0.84639161       0.07973266       2.79887657       1.18199390      -0.09811215
N      -46.92939603       2.57716780     -30.03491100       0.29564324       0.88208366      -0.33125511      -0.16266308      -1.35784331      -0.60733740
N      -48.98659570       0.94877000     -31.23653603       1.38370085       0.73128758       0.21613685       0.78614853       1.29587331       1.97969045
O      -47.52056977       0.80927363     -36.02983325       0.31812999       2.41020028       0.08958807      -3.73928575      -2.48172207      -2.62171087
O      -45.52822292       1.44634105     -35.97372920      -1.40138251       1.69362248      -0.07054466       0.88081580       0.08809387      -0.36661478
O      -45.26478959      19.75460472     -58.14463685      -0.09952371      -0.03197315      -0.19485644       0.45975113      -0.57059260      -1.28124148
O      -43.75489968      19.06144879     -28.45841590      -1.66672863       0.96957914       0.08824205      -3.01824682      -0.02813294       0.69863723
O      -49.90461674       0.27615916     -31.66573655       0.07866543      -1.08625375       1.63096880      -0.26256361      -0.06570325      -1.22829514
O      -48.86531022       0.99085478     -29.97715744       0.12630249      -0.44795527      -0.52778589       0.13176129      -0.03852696      -1.04928829
H      -49.85885243       0.60663390     -33.42088818      -0.02902746      -0.12591048       0.28906785       1.07459721       0.31291367      -0.65065727
H      -48.93245585       0.60328394     -35.09691225      -0.36432354       0.11038214      -0.20127805      -0.57246273       1.21947097       3.95301613
H      -44.00982157      19.02433265     -30.36863188      -0.39106792      -0.05368241       0.08932452      -0.42537669      -0.03778091       0.85208358
H      -44.56380233      18.20174814     -31.63844391       0.09615534       0.09259667       0.11351735       0.62739780      -1.87615631      -5.43791473
H      -47.64634033       2.01341900     -29.49731883       0.29890826       0.14340168      -0.05314801       1.33374840       0.82151583      -1.02532501
H      -46.01819802       2.80216934     -60.74228189       0.19497823      -0.28194805      -0.00037776      -0.89392888       0.21512180       0.17023695
C      -34.05278471      -6.01915981       6.71535806       0.04389143      -1.39554503       0.17639977      -0.50971796      -2.97535805       1.19660181
C      -32.87595146      -5.85363214       7.42210050       0.79667517       0.23309396       0.01996918       1.03284574       0.00549038       1.04298052
C      -34.65871118      -4.88789946       6.16592505      -0.00380487      -0.56573174       0.28521126      -0.63898590       3.07557745      -0.80078006
N      -34.63600937      -7.24131084       6.64104240      -1.28472770      -1.63158868       0.53273776       0.16593656       2.16373016      -0.46098234
C      -32.46860454      -4.62829108       8.00852368      -0.38630021       1.88439125      -0.60347710       1.44074697       0.51014482       1.02171469
N      -32.02412097      -7.04042792       7.61044837      -0.59193866       0.26816076       0.12030254       2.14328609       2.62902360      -1.78589729
C      -33.07854908      -3.41237400       7.57823986       0.70963197       0.26916402       0.67735899      -2.56116684      -0.08433724      -1.21000024
N      -31.48166370      -4.59596879       8.95610673       0.81253014      -0.44447946      -1.03552673      -1.59265715      -0.14352081      -0.86464195
C      -34.16262175      -3.53936258       6.50111206      -0.71013720       0.25071669      -0.41634377       2.54428391      -0.34399025       1.77157114
N      -33.03358974      -2.12010102       8.30047705       0.00771015       0.97792755      -0.88676455      -1.68985326       2.48628559      -2.24368969
N      -34.49483798      -2.42422706       5.91100109       0.93735445       1.61571371       0.94618990      -2.75798021       0.33988818      -2.37820998
N      -35.68778116      -5.01895957       5.20184818      -0.81914030       0.79478016      -0.59841150      -2.03850359      -1.27176147      -1.36698019
O      -30.79055281      -6.74832403       7.48462685      -0.11958478      -0.50373543      -1.54381867      -2.23924286      -1.64342849       0.83637009
O      -32.49945970      -8.14183355       7.60306991       0.15719476      -1.12732731      -0.46029621       0.63454955      -0.70324801       0.73874137
O      -32.55554789      -1.94132399       9.38203337       1.32575013      -0.40870861      -0.91964057       1.33727587      -1.93488812       1.42992298
O      -33.56589385      -1.06560284       7.77215172      -0.05795994      -0.67547461       0.26709870       1.06288955      -2.44836191       0.13494424
O      -36.32402919      -4.02334719       4.75497812      -0.77224667      -0.09508050      -0.80452937       1.55212362      -1.52931587       1.00777558
O      -36.00574161      -6.20582358       4.79797738      -2.28829969      -0.21157122      -1.85025065       0.32703505       3.21354171       0.81755323
H      -35.45299481      -7.20475620       6.10948667      -0.14436049       0.44555352       0.09653417      -1.21320702      -0.28148334      -1.05328721
H      -34.41684729      -8.08031911       7.09749982       0.18140728       0.07837552      -0.21805784       1.04463654      -0.35577355       0.72628789
H      -31.49880200      -3.72546654       9.47712919      -0.21092376      -0.07351792       0.09433651       0.57646035      -0.54254851       0.27880188
H      -31.15085946      -5.49747686       9.31851244       0.21809564       0.21431479      -0.00238824       0.00905180       1.09506968      -0.09371585
H      -35.41139217      -2.48214545       5.33284105      -0.18821475       0.14620708       0.25093090       2.35798934       0.18505611       1.03330340
H      -33.98687557      -1.52527825       6.08427003      -0.21548756      -0.21379461      -0.29711370      -1.07901656      -1.48634445       0.30609411
C      -19.74726202       1.86116505       0.77669243       1.05051036      -0.06711212       0.11747152      -1.53457838      -1.70598461      -3.11228344
C      -20.06690332       1.89819901      -0.66826106       0.72269718       0.73282405       0.44798777      -0.26059070       0.40644541       2.36017728
C      -20.64704100       1.13321667       1.60071760      -1.19736925       0.24467825      -0.92086580      -1.96034254       0.61170343       1.67365414
N      -18.57499216       2.28149749       1.09403410      -0.06262048       0.67011892       0.73473119       1.87000967       1.37583480       1.57689329
C      -21.36111180      16.80344688       2.25584053      -0.19917526       0.00421401      -0.40795068       1.97542826       0.40214786       2.85670300
N      -19.05194828       2.48066182      -1.51043144       0.75086012      -0.26312663      -0.72517443      -1.74935068      -0.51169977      -1.77403405
C      -22.41046291      16.53098417       3.25978200      -1.51137808      -1.21930228      -1.05997583       0.96994640      -0.14679202       0.48152817
N      -21.44031329      16.67734823       0.98506119      -1.28666224       0.95782447       0.38464703      -5.22889317      -1.91639856      -3.37406371
C      -22.05667132       0.96865765       1.23497883      -0.38680277      -1.29796966      -0.41783747       0.30194546       0.54542650      -2.29565210
N      -23.71129889      16.19586393       2.80595171      -0.18203684      -0.24221633      -0.07718513      -2.09703143      -0.56571714      -1.16680424
N      -23.00967418       0.63874349       2.05340401       1.55816383       1.39730644       0.49025021      -0.30075848      -1.02078842       2.08695705
N      -20.40411188       1.14648471       3.02521012      -0.42744864      -0.33508601       0.33962528       2.55734793       0.55059312       0.44499418
O      -18.35627178       3.45163893      -1.20307814       0.05950094       0.08343205      -0.22090496       0.11272886      -0.65816486       0.58794549
O      -19.05499899       2.05423836      -2.66860633      -0.35020263      -0.01985810       0.22814731       0.80715038       0.22300260       0.22632439
O      -24.77710146      16.18062295     -27.60253847       0.10503847       0.86694580      -0.41082338       2.60370035       0.35990836       0.26264232
O      -23.83451776      15.89965826       1.60472289       0.76426981       0.41390633       1.31722747       0.29623787       0.26067447       0.31049214
O      -19.15222814       1.31953981       3.34490346      -0.66530135       0.58433860       0.81420001      -4.23460537      -0.70105470       0.23525325
O      -21.34422547       1.00315925       3.82676821       1.61219537      -0.64987591      -0.26026750       2.64300541       0.09274634      -0.55734972
H      -18.14943380       2.26578603       2.01379058       0.18954828       0.01309564      -0.23492306      -0.95906537      -0.58072691      -0.04246699
H      -18.14873420       2.91829361       0.44963527       0.02337717       0.27042027       0.15096527       0.35500918      -0.01101408      -0.37623300
H      -22.36215986      16.39842208       0.48647228      -0.17511795      -0.42001427       0.11485506       1.80945775       0.57442061       2.22242079
H      -20.76001015      16.80500256       0.29797131       0.00414006      -0.04403804       0.12589952       1.89716143       0.63933691      -0.00413788
H      -22.80412893       0.37575024       3.06993610      -0.15952370      -0.12232102       0.12487336      -0.34833395       0.92979635      -2.18575085
H      -23.96104624       0.55195409     -29.40827870       0.06998614       0.18908328       0.09141022       0.51375537       0.03726620      -0.00352448
C       -8.22565776      12.66406804      -4.17446377      -0.72237947       0.25421484      -0.40328843       0.63811963      -1.29912862       1.49489413
C       -9.12496083      13.58302899      -4.62206835       0.40916481      -0.98725414      -0.33365828      -2.42185270       3.56168457      -2.67310014
C       -8.37956450      12.22917875      -2.87234729      -0.03789759       0.80166079      -0.49038546      -1.82137556       0.39948690       4.04013938
N       -7.29770951      12.08485797      -4.85397981      -0.49848516       0.77729640      -0.08241577       2.18408732       0.07128348      -4.79079928
C       -9.98612278      14.38731383      -3.80174908       1.22191569      -0.34077839      -0.60249456       0.41898443      -0.52572291       1.79990251
N       -9.15749896      13.99941700      -5.99526442       0.79446189       0.45312192       0.76896139       2.72901101      -2.52438433      -2.55615281
C      -10.19240871      13.90816456      -2.48718853       0.02101379       0.59365548      -0.24102945       0.30326161      -3.24711438       0.33008448
N      -10.50694079      15.54454560      -4.09700554       0.90604827       0.12853185       1.56816055      -1.45855537       2.27752562      -2.54273500
C       -9.51122718      12.71602515      -2.05259073      -1.54021106       0.16410179       0.16530967       1.04187247       0.77811239       0.84430017
N      -11.33629989      14.26578833      -1.72020730       0.65687505      -1.37502266      -0.20390455      -0.11734755       4.46236885      -2.66319926
N       -9.77018252      12.33199197      -0.76785120      -0.83446382      -0.57421568      -0.23268949       0.51895757       0.37685198      -1.60107497
N       -7.34393580      11.46657477      -2.14608852      -0.06322384      -0.61963472       0.51335477       0.72926662       2.65101770      -3.37311073
O       -9.93068575      14.84081715      -6.42943961      -0.04884423      -1.37272839      -1.60870188       0.26834219      -0.29365387       0.07915350
O       -8.36278683      13.37502520      -6.81272063      -1.52050108      -0.97292564      -1.40285179      -2.14146409       1.94199311       2.04241163
O      -12.05132661      13.48674264      -1.15066481       0.28086585      -0.36357055      -1.14489355      -0.08577139       0.52799234       0.50753612
O      -11.59414597      15.53562709      -1.88347956      -0.56630056       0.02262274       0.56758546      -0.67182313      -3.12829389       2.14724025
O       -7.70639200      10.85084997      -1.22220206      -0.54734225       2.22698314      -1.05271126      -1.15924739      -2.77186259       3.60571978
O       -6.15593683      11.56824459      -2.44230590      -0.94966207      -0.96698991      -0.88589580      -0.44698776      -0.04569509      -0.64950694
H       -6.48868924      11.67689091      -4.45203456       0.30995789      -0.21326152      -0.17152279       0.16502104      -0.33064443       0.92464828
H       -7.17069229      12.34130738      -5.87046716       0.04920963      -0.05981002      -0.00334573      -0.62672264      -0.18759629       1.80118658
H      -11.17018323      15.98214256      -3.43520066      -0.12505991       0.13902315      -0.17403758       1.01537934      -0.69201860      -0.33051607
H      -10.57709530      15.85803154      -5.09165161      -0.06411101      -0.47238735      -0.23425070       0.52976603      -0.69224143       1.56218112
H       -9.10854759      11.70411424      -0.40704454      -0.18738572       0.60538114       0.02973719       0.42400566      -0.93574389       0.64743528
H      -10.64939088      12.46848771      -0.29629240       0.02946819      -0.08271539       0.37600468       0.31502625       0.21326152      -0.55956145
C      -29.37960316      28.23080807      34.42453472       0.32809725      -0.70672592      -0.17360545      -2.08685468       0.69436471      -1.21684600
C      -30.06642838      27.63173581      35.49795947       0.55649554       0.10489105      -1.27995950      -0.73804434      -2.17588570       1.98673220
C      -28.15690277      28.84298883      34.62788484      -2.56276379      -0.61088881      -0.19132339       0.49864965       0.16524263       0.88896941
N      -30.04624927      28.32496447      33.28078453       0.00440827      -0.24738473      -0.75387096      -1.20638118      -0.68616381       1.87561785
C      -29.59041369      27.75633252      36.86893497       1.11674389      -1.74147185      -0.13132930       1.81328872       1.81416656      -2.33868254
N      -31.16164703      26.66332539      35.27006290      -0.32294755      -0.33920263      -0.90957625      -0.21638952       2.57098978      -0.59949514
C      -28.40325785      28.60427138      37.05039556      -0.29038244       0.07972932      -0.69831091      -0.24115317      -1.64189170       0.21436201
N      -30.18201871      27.28805708      37.91622890      -0.66041948      -0.70775111      -0.28367521      -0.05627492      -0.27255375      -0.43691844
C      -27.62674454      29.07361976      35.97178182       1.73770665      -0.83015713      -0.26009922      -1.36091786      -0.15172384      -2.34125954
N      -27.82654114      28.73871570      38.33657499      -0.17423414       0.35538255      -0.25398410      -0.95311383       1.40625512       2.34805798
N      -26.54599674      29.74329856      36.09898997      -0.07446018      -0.54884195      -1.01279511       1.00487310       0.27514855       0.36926989
N      -27.51050460      29.39806544      33.52909678       0.69810888       0.78453502      -1.24934837       1.65271793       0.37294721      -0.80772456
O      -31.90692598      26.79128857      34.24119179       1.57390076       0.61821231       1.71838695       1.38230736      -0.91214417       1.55365777
O      -31.42148138      25.87148241      36.16141400      -1.29124378       0.72369111       1.23572648      -0.24609568      -0.28998841      -0.48337558
O      -26.99668348      29.59300819       7.51548310      -0.40116733       0.42555125      -0.52855373       1.22260699       0.57667082      -1.34977701
O      -28.27489589      28.12394102      39.30327982       0.52234824       1.77686652       0.42838289      -0.71248948      -1.58540623       0.05438271
O      -26.42947777      29.95737268      33.70000963      -0.62604008       0.35727387      -0.36539056       1.39608871       0.88746627       0.67927207
O      -27.88597740      29.32106198      32.38060626       0.79769640      -0.17681625      -1.31272144      -1.89718899      -0.70211727      -1.00041960
H      -29.65317917      28.57227343      32.44051289       0.28656372      -0.07673500       0.60509671       1.59170260       0.82685201      -1.75211900
H      -30.90427372      27.80237755      33.25535854       0.21757358      -0.00078672      -0.47043398      -0.34250283      -0.02394039      -0.01769559
H      -29.59805463      27.34752386      38.72537558       0.00972188      -0.23866296       0.01541120      -0.18355523      -0.19137495       1.13443605
H      -30.84992064      26.60125374      37.68110924       0.24478482      -0.18127542      -0.00877032      -1.06481353      -0.95492237       0.55789750
H      -26.08078850      30.08390148      35.24265287       0.21621540      -0.19019556      -0.00280578      -0.14359923      -0.22707159       0.64783791
H      -26.26891831      29.84416091       5.95858361      -0.06114161       0.09087275      -0.17821263       0.73622737       0.73916554       0.50859907
C      -63.27369357      15.51747388       7.59811000      -0.87022320      -2.10521989      -0.33758703       2.58406359       2.13103204       0.92524191
C      -61.81409826      15.24261640       7.76025757      -0.80907344       0.05536796       0.44744097      -2.36085299       0.66697269       0.72348454
C      -63.63889525      16.74556603       8.21660825      -0.36315660      -1.28221305       0.43726498      -1.97157611       1.18930578       0.76663307
N      -64.08444219      14.78854235       6.87703207       0.65830795      -0.19476064      -1.28774307      -2.00144884      -0.81758218      -0.33371460
C      -60.95894617      16.19786140       8.35354075       0.11090167       0.62971135      -0.69158532      -1.04287375       3.09262791      -0.50850582
N      -61.32218648      13.96680294       7.53975085       0.07559136      -0.34378098       0.46175433       0.63045255      -0.63403998       0.31813947
C      -61.46899013      17.50751200       8.73008431       0.00705139      -0.48134362      -1.37159013       0.37836722       1.18753148       0.52193146
N      -59.66222857      16.11755698       8.27048367      -0.09612210      -0.24295663      -0.09758854       2.49265824      -4.16804087      -1.97829197
C      -62.82791349      17.81841811       8.74702260       0.57565348      -1.03646090      -1.64897451      -0.30415449      -0.74561792      -1.12083702
N      -60.50822151      18.70726558       8.97342466      -0.10187806       0.18437985      -0.80996524      -4.73623312      -0.51340444      -3.62023590
N      -63.37874558      19.04542254       9.02751077      -0.46649564       0.18942323      -1.71313346      -1.63886813      -4.58114168       0.09307771
N      -65.07719713      17.15663263       8.24376866       0.47413053      -0.15944080       1.67246773       1.14401756      -2.40505585      -2.31201609
O      -60.21283983      13.66976635       7.97910354      -0.07077133       0.98417371       0.29362357       0.46132495      -0.28735987      -0.19995726
O      -61.99507496      13.14790245       6.94644651       0.91157198      -0.47907523       1.45646263      -0.80277380      -0.64114037      -0.61213071
O      -60.84127831      19.78164961       8.36922741       1.62667180      -0.28997537      -1.01082001       1.05117702      -2.05796182       1.76670223
O      -59.54375884      18.52620562       9.59679602       0.66021915      -1.53130866       0.63062350       2.86412343       0.25426929       1.77617288
O      -65.77342871      16.88089242       7.27032868       0.31064407      -0.10130985       0.09638367      -0.13699343      -0.25073640      -0.61551592
O      -65.54268305      17.69032788       9.19313511      -1.29632722      -0.66678998       2.03739443      -0.72961081       1.26234539       2.33022243
H      -65.09152609      14.97456995       6.77315120       0.01994867      -0.14668179       0.09580805       1.13962065       0.42787590       0.26721932
H      -63.80367397      13.87906883       6.58152260      -0.01884594      -0.59160848      -0.15357055       0.64359453      -0.28382909      -0.05935022
H      -58.96425775      16.66412203       8.64890958       0.01910206       0.34390717       0.11878406       0.66787105       1.83201732       1.11907066