1296
Lattice="-43.456538952485204 -3.7381309274812673 26.576155791021787 0.0 17.621871926009277 3.9129233125964755 0.0 0.0 -26.308001749352353" Properties=species:S:1:pos:R:3:momenta:R:3:forces:R:3 energy=-1487789.5632389635 free_energy=-1487789.5632389635 stress="0.005136329775839634 6.926031131289042e-05 -0.0019606580475566454 6.926031131289042e-05 0.0027277943522696856 0.0010741653239132306 -0.0019606580475566454 0.0010741653239132306 0.003866679254880468" pbc="T T T"
C      -30.34166738       6.97810407      18.29336233       1.96997101      -0.34183630      -0.04993381       0.97363152       3.49929383       0.02826055
C      -30.92708633       8.07319379      19.00137246      -0.32353104       0.29080855       1.61170517      -2.25845373       0.54786795      -0.44666189
C      -28.88466297       7.04071286      18.16112620       0.13451828      -0.32688096       0.68867941      -1.69475082      -2.14192771      -0.91228038
N      -31.08542225       6.21679871      17.57603726       0.18733356      -0.20016793       0.31408214      -0.78917170      -2.54791003      -2.22227040
C      -30.17864805      26.49023130      23.81443570      -0.84327426       0.35576621       1.55152929      -2.10206996      -0.11947276       2.59076963
N      -32.39772553       8.44963568      18.81382498      -0.66266458       1.66142145      -0.51519401       1.88072510      -0.99467598       1.88096285
C      -28.81676280      26.38291740      23.73943962      -0.41361232       0.25364238       0.13214967       3.66977108      -0.03589743      -1.59122613
N      -30.74204369      27.14931041      24.90080326       0.83608868      -1.34494715       0.69062603       3.90942485      -2.44404992      -3.20946059
C      -28.14006088       7.95049977      18.81071424       0.74896090       1.20217680       1.50001730       1.26268145       2.68922829       1.81307067
N      -27.97049980      27.18620729      24.59750923       0.69577873      -1.21671608      -0.20624481      -0.60183503       0.44295481       1.10289842
N      -26.81682020       8.12518336      18.59978081       0.92449244      -0.84944965      -1.30613178      -0.40246963       0.08763085       0.91077924
N      -28.20752526       5.97770423      17.49180937      -0.41730180      -0.59807613      -0.24499605       0.46952248      -1.78707586      -0.25178736
O      -32.89033634       9.29163783      19.59857000      -0.43603543      -0.54806191      -0.40395366       0.36619975      -1.53782281      -2.19531391
O      -33.03228983       7.80604771      17.95814059       0.41233251       0.22156006      -0.61223252      -0.37869736       1.39479852       0.75275140
O      -28.51282236      27.41714311      -0.60162472      -0.14847288      -0.86799012      -0.69287034       2.16843126       0.38973833      -0.15866766
O      -26.85589699      27.64576178      24.32630074      -0.28752378       0.17174676      -1.05369788      -1.45013105      -0.90945423       0.07209443
O      -27.03639382       6.03953565      17.08578031      -0.18779137      -1.21535891      -0.46797191      -1.10324465       0.65714044       0.52349638
O      -28.83079687       4.91645390      17.41583644       0.09458095       0.00091110       1.41946107       0.14160724       0.23768214      -0.30154930
H      -30.59141674       5.60587073      16.90005372       0.08665630      -0.08752075      -0.03943901      -0.90417831       0.52229860       0.88821454
H      -32.08868867       6.41973185      17.47060437      -0.09828819      -0.32729023      -0.03416434       1.11360685      -0.32528729       0.21573157
H      -29.94116538      27.36491146      25.47408162       0.24903565      -0.02272435       0.12705768      -0.92400925       1.04090582       1.22695734
H      -31.61758868      27.42965655      24.72205379       0.11785236      -0.02859881       0.06385230      -3.50896473       1.28531591       0.26466095
H      -26.27863458       7.42803990      18.10309849      -0.05206803       0.43966374      -0.11109093      -0.50576576       0.08051554      -0.01901951
H      -26.37133882       8.64740282      -6.95110709       0.14317399      -0.32055833       0.22925095       0.10479555      -0.08123287      -0.92363269
C      -49.61980004      -0.79078284      -0.54277004       0.53147041      -0.19627327      -0.37006053       0.07602084       2.32295413       1.90703205
C      -48.27853329      -1.13840372      -0.08088569      -0.24945480       0.95235352      -1.02167391      -1.25598515       2.82948943      -0.07717949
C      -50.06627248       0.65120891      -0.28215310       1.00100763       0.03099450       0.24612793       0.84267908      -1.77969419      -1.15124430
N      -50.46689729      -1.68538031      -0.98945408      -1.30702033      -0.61956304       0.80211310      -1.31433492      -0.06967991      -1.15892668
C      -47.30233805      -0.07111439       0.15405421      -1.07328233       0.16639184       0.67979912      -3.21557609       1.51858977      -0.05781608
N      -47.82390061      -2.43001358      -0.20051716       0.58807564      -1.02051395       0.63863343      -1.26683835       0.46953731      -2.08430613
C      -47.89392788       1.26306253       0.44813642      -0.31553340      -0.23563029      -0.30100198       1.41141048       0.41876086      -0.28055858
N      -46.02923597      -0.31673208       0.02402014       0.72473430       1.63665100       1.27184955       1.02728521       1.37613112       0.38575440
C      -49.24851142       1.66650936       0.25397034       0.24564930      -0.98733702       0.28385927       2.03644109      -0.83111337       1.15841939
N      -46.99405931       2.42042859       0.83341657       1.70218092      -0.19503362      -0.05093596       0.51491825      -3.83434705      -1.68523649
N      -49.65402238       2.92789171       0.60451638       0.34196753       0.07414688      -1.26133795      -1.56012247      -0.09248569       0.88632826
N      -51.24310694       1.06192973      -0.91190697      -0.07062031      -0.54651451       1.17620529      -0.82787973       1.18327553       0.33254434
O      -46.72796169      -2.67303104       0.24243789       0.17015880      -0.30404631       0.74872629       0.94502562      -2.02091250       0.67515304
O      -48.52583714      -3.18920372      -0.88352041      -0.61212834      -1.01732960       0.59925076       1.43383233      -1.26361163       0.86967376
O      -47.41208348       3.22621005       1.58816398      -0.21477104      -1.34413121       0.21103276       0.38911793       1.77405655       1.23198313
O      -45.84855504       2.39419204       0.33923481      -0.27917027       0.47644286       0.23897211      -0.63606507       0.45673389       0.46773752
O      -52.08865715       0.23664914      -1.15260146      -0.66390501       0.29762631       2.78086922      -1.49722389      -1.34856622      -0.62003123
O      -51.46778683       2.25647994      -1.15770095       1.36277624       0.06402681      -1.39925064       0.52492935      -0.00431927       0.32447765
H      -51.39566367      -1.50654003      -1.37395995       0.22256981      -0.01745337       0.16879001       0.68237079       0.87604432       0.79589370
H      -50.13904748      -2.59216243      -1.22937219       0.37655475      -0.02348379      -0.22250252       0.77507755      -0.53013100       0.32987069
H      -45.35974762       0.42585493       0.02883062      -0.10200392       0.14949327      -0.70303024      -0.12721198       0.55197394       0.20401402
H      -45.71458745      -1.24145552       0.15737594       0.24673247      -0.07631455      -0.12706899       0.26663651      -1.07191357      -0.16494471
H      -50.66507293       3.00489697       0.50456276      -0.25786334       0.07945264      -0.14759635       0.52577978       0.17367898      -0.31237811
H      -49.38164484       3.36524831       1.52299360      -0.52543402      -0.10890812       0.28464010       0.18621523      -1.36022229      -1.70310225
C      -43.37006691      -0.81549494     -18.08285221      -0.33446222      -1.19152430      -1.19642394       0.60377618      -2.15093502      -0.15757491
C      -43.88039806       0.42847516     -18.33233486      -0.35494301      -1.00247711      -0.66247197      -1.24674135       4.64500927      -0.71881718
C      -42.50929213      -1.05602709     -16.95368983       2.27815197       0.16587383       0.51216612       1.28018508      -2.13477202      -0.28677035
N      -43.71022906      -1.76509240     -18.93193188       1.53721028       0.38581816       1.12343907       0.71610572      -2.58429946       0.22730601
C      -43.33049572      19.15390333     -13.70520649      -0.18440185       0.28068056       0.30677156       0.53002173      -0.25764129       1.14390063
N      -44.86567427       0.77634343     -19.41961135       1.10696473      -0.31530359      -0.99352389      -0.94841245      -2.09306732       0.02688095
C      -42.58983546      18.83317869     -12.46438223       0.38720011      -1.85410762      -1.24234028      -0.55193709      -1.97569811      -1.62155359
N      -43.43084612      20.43597170     -14.09863657      -1.34797521      -0.52417365       0.59976722      -1.95735876      -3.02091979      -2.81245215
C      -42.16639075      -0.11004638     -15.94242845       0.26225124       0.01944066       0.42467875      -0.22511730       1.21684081      -1.89661945
N      -42.53609916      19.83726038     -11.56311052      -0.64292753       0.97888743      -0.17010975       1.86772107      -0.75926307       1.89460012
N      -41.42498637      -0.40976125     -14.89304018       1.49534729      -0.06584298      -0.15042907      -1.52339199       1.47094538      -1.23381509
N      -41.85354667      -2.36741818     -16.89358634       0.33397447      -0.37180911       0.67331103       0.23520104      -1.96704511       0.47114848
O      -45.45289948      -0.19847637     -19.98016274      -0.58265429       1.21803657      -0.38011246       1.01775313       1.52013746       0.75203065
O      -45.22629505       1.92041797     -19.68274394      -0.95904364      -1.14129131      -0.30010808       1.06036239      -0.77774401       0.49262014
O      -41.81762039      19.68387869     -36.86104201       0.83237411       0.67190271       0.36407793      -0.46968929       0.85885158      -0.02657590
O      -43.19243632      20.80043972     -11.80419283       1.89893073       0.99653992       1.04292783      -0.82810285       3.21509217       1.66175689
O      -41.75150688      -3.10779956     -17.94161796      -0.48605801       0.21370864       0.70514981      -0.23439835       2.04401209       3.35111942
O      -41.45464840      -2.79270816     -15.72397086       0.67976364       1.36038000       0.66545331      -1.05138587       0.70410023      -4.02587972
H      -43.16589258      -2.69922778     -18.88739776      -0.14088522      -0.27057520       0.33911043      -1.45191430       2.20847558      -0.12012790
H      -44.55214871      -1.50169270     -19.45925799      -0.30997093      -0.05286385      -0.01798384       0.64718799      -0.68011141      -0.33467928
H      -42.87151007      21.08205658     -13.69806918       0.21312912      -0.11085585       0.18796250       1.49870034       2.25261170       1.45088313
H      -43.92872160      20.65543793     -14.96220820      -0.18897499       0.00954606      -0.00831606       0.32708912      -0.37261194       0.51038525
H      -41.20588253      -1.36309440     -14.87122351      -0.06388243       0.05005591      -0.25890687       0.49285806      -1.34214485       0.79010922
H      -41.30057509       0.24814748     -40.45633134      -0.20432229      -0.35897171      -0.11740807       0.06394589       0.16286388      -0.07691570
C      -36.31362359     -14.65980908      12.14912729      -0.43989514      -0.20663355       0.36384027      -1.10378133      -2.03858710       1.88001121
C      -35.65665376     -13.44652841      12.50196982      -0.49550406       0.79284549      -0.31111324      -2.57034483      -0.09007969      -1.31199672
C      -37.68018798     -14.87350979      12.65836960      -0.14051738      -0.38323782       0.78293019       2.97461701       2.00106714      -0.26183522
N      -35.68962907     -15.75521098      11.63609737       0.09208290       0.51338129      -2.03574511       0.87362520      -0.59345949      -0.20712743
C      -36.43744495     -12.35716291      12.95310834      -0.05998955       1.08941368      -0.03961459       0.90094193       1.34042912       1.94617096
N      -34.30743607     -13.23684786      12.12950002       0.42233193       0.34665839       0.62322075      -1.88936318      -1.82848149       0.47838177
C      -37.78235103     -12.55785257      13.27242466       1.44647191      -0.18472648      -0.46397344      -3.59105406      -0.66657093      -0.51497799
N      -35.84478884     -11.19057911      13.36076920      -1.37358960      -0.42138127       0.18599133       0.45376979       1.62921959      -0.94857812
C      -38.48809606     -13.81444404      13.09407122       0.27054037      -0.10027850       0.67703410       2.00640351       0.26739242       0.07520466
N      -38.72968365     -11.49458752      13.48029587       1.73680175      -0.09753878      -0.23153824      -1.75989394       1.62915843       1.22505990
N      -39.72928570     -14.02972961      13.42153894      -0.34193706      -0.33083962      -1.23246661      -2.02980530      -1.48665420       0.11524851
N      -38.33004049     -16.09491488      12.48033840       0.14605841       0.61511483      -0.07126356       3.34410140      -2.71652401      -0.24686746
O      -33.66417978     -12.75289922      13.03569524       0.94608087       0.67103298      -0.12354567       2.15596957       0.85056861      -0.70652654
O      -33.97185780     -13.70643028      11.05681690       0.15455876      -0.95167073       0.61413293       1.32799101       0.78000966       0.27888416
O      -38.40777698     -10.32928573      13.44685574      -0.28944241      -0.75657456       0.35231407       2.46179958       1.19222055      -0.55456395
O      -39.95475564     -11.64941348      13.75031442       0.31156588      -0.37098652      -2.57064896       1.25268206      -1.25270934      -0.31818856
O      -39.29704426     -16.02104037      11.79780119      -0.08129938       0.28982219      -0.78293564      -2.66009272      -1.25168772      -0.93671542
O      -37.76259249     -17.17620414      12.84510914       1.42573278      -0.72087401       0.54784879      -1.32383172       1.97402724      -0.40834852
H      -36.03393521     -16.71238740      11.84776572       0.43789717      -0.14981301       0.41094487      -0.00795699       1.35890217      -0.17729610
H      -34.69123599     -15.74861137      11.36608791       0.24839244       0.12231475      -0.15929830      -1.15545344       0.46754909       0.28160228
H      -36.38875605     -10.27723897      13.52199068       0.16558427      -0.31344403      -0.35211325       0.80647913      -2.50920615      -0.52512912
H      -34.85140601     -11.08039127      13.09984747       0.20029737      -0.06416773       0.00210862      -1.29481131       0.06342474       0.60120184
H      -40.22137069     -14.86891053      13.11031032      -0.47208817      -0.26069148      -0.15801068       0.73716156       0.55605319       0.09711176
H      -40.32314135     -13.37312259      13.89097070       0.28870627       0.06234208       0.31484666       0.40856016       0.39366002      -0.07442253
C      -18.44557674      -6.00818970       0.28444551      -0.02437035      -0.38892019      -0.09405681       1.59616299      -1.04984978      -0.79334843
C      -17.97244875      -7.22554860      -0.46903282      -0.39084651      -0.49192865       0.25686589      -1.34892808       2.03307362       0.08347050
C      -19.42837429      -5.23364060      -0.30579431      -0.90251498       0.56403157       1.71741167      -0.75887113       0.82118644       1.22665592
N      -17.76989256      -5.62439040       1.37662888       0.62889935       0.87686523       0.16068289       0.38465320      -2.20960029       0.99099787
C      -18.23428215      10.27029503       2.03723666       0.81071175       0.34435134      -0.16918722       0.06923129       1.36688607       2.36720486
N      -17.17264811      -8.16467438       0.16093466      -0.31737613       1.61944660       0.32664986       0.05192019       0.86989885       2.08325004
C      -19.30399732      11.10519556       1.60987861       0.72018294       0.13360997       0.21372505       0.05595941      -2.15588848      -2.54942872
N      -17.51074847       9.47159654       1.32697260       0.57238366      -0.44227108       1.34564345       0.77991843      -1.74844656      -0.49374991
C      -20.01636710      -5.67578804      -1.50559573       0.03230762      -0.49428359       0.24613007      -1.71135396       0.99037983       0.40620020
N      -19.79177687      10.83923616       0.22661915      -0.50512215       0.05272495       0.45660941       1.49510129      -0.53217233      -0.85039234
N      -21.21411220      -5.27004356      -1.90948400      -0.92295354       0.13638707       0.22574146      -1.35003120      -1.96554562      -2.62291172
N      -20.08697722      -4.14452426       0.46912662       0.15049166       0.06054096       0.17576549       3.67668936       1.86351139       1.09326359
O      -17.37305107      -8.28381178       1.39226460       0.30315512       0.80173315       0.83560235       0.90798279      -0.19482004      -0.89486786
O      -16.28850888      -8.76976874      -0.41444561       1.18477010      -1.99272239      -0.01221298       0.10456937      -0.72962475      -0.60838364
O      -20.97831531      10.68003189     -26.40948560       0.51443272       2.03067197      -1.49062896       1.64505219       0.34246366       0.85416739
O      -18.83589095      10.72677050      -0.58460987       0.16496819      -0.60378124       0.94643689      -2.16346950       0.05767382       0.79024956
O      -21.25428849      -3.93564243       0.33835029       2.30480168       0.64861866       1.29536381      -0.97516227       0.02220666      -0.06551984
O      -19.33271713      -3.34716495       1.18425986      -0.19006618      -1.26716403       0.95367207      -2.03101147      -2.88010439      -2.03610013
H      -18.02948405      -4.86530927       1.97385110       0.05434345      -0.14389974      -0.07828547      -0.26053990       0.41185480      -0.39532779
H      -17.38075203      -6.44157915       1.88467326      -0.16018066      -0.20440971       0.12102426      -0.20508570       1.15259311      -0.47661191
H      -17.67057269       9.46267830       0.34539083      -0.02642081       0.26125714       0.11388057       0.17351648      -0.07111924      -0.41257172
H      -16.71476889       8.95375892       1.77573326      -0.37806817       0.40215880      -0.28990961      -1.22806110       0.84559918      -0.57044541
H      -21.63979182      -4.46907384      -1.54738547      -0.22705085      -0.06572367      -0.09689573      -0.68143894       0.76791840       0.72712085
H      -21.73218688      -5.84047226     -28.98384194       0.00088378      -0.19012389       0.25200332       1.51331298       1.73797019       1.75953036
C       -9.26878005      10.76337677      -2.50462676       0.80269859       0.64568930       0.53537887      -0.66560753       0.78149137      -3.07477659
C      -10.07446180      11.68967029      -1.80595739       0.71896018       0.53659977       0.42835689       0.95077423      -0.91436125       1.13396663
C       -8.14121502      10.17433653      -1.93419485      -0.44581847       0.48385031      -1.17335115      -0.52152156      -1.74069430       0.06754645
N       -9.66140782      10.57968665      -3.81901811      -0.27126435       0.67421519      -0.41472850      -0.64023502       1.30225960       0.07547313
C      -10.00556671      11.59184943      -0.35309043       0.94019587      -0.73980587       0.39039224      -2.43779605       2.33050306      -3.65740887
N      -10.49360623      12.83757159      -2.59460819      -0.00252891       0.70987413       0.49485402      -0.62767841       1.27573500       2.37681739
C       -9.08057525      10.76617496       0.20543404       0.01413329      -0.97948705       0.34216446       0.42397069      -0.62149636       2.48704808
N      -10.83182470      12.37082234       0.37319352      -0.08660956      -1.04131325       0.41668461      -1.36062013      -0.05399250      -0.70041771
C       -8.06174189      10.07839724      -0.47218551      -0.12080012       0.60542481      -0.68823699      -0.91508763       1.46951064      -2.73923970
N       -9.15282445      10.79414501       1.73972113       0.31864331       0.04501631      -0.18148104      -1.07946378      -1.86896946      -0.09410489
N       -7.08081396       9.44781951       0.07747982       0.11158098       0.13454046      -0.15215634       0.69283692      -0.76522191       1.92119415
N       -7.33845447       9.35240043      -2.84614352       0.89810790       0.45343023      -1.31768972       0.43309290       0.00857132       0.48187037
O       -9.75615321      13.26400888      -3.46484828      -0.45444652       0.85713994       1.43437232       0.23435717      -0.28456690      -0.76230809
O      -11.47994224      13.50219944      -2.23343929       1.16981098       0.08829423      -1.04258296       0.05785077      -0.96841446       0.16605752
O      -10.17031356      10.36038399       2.33367057       0.72510807       0.75439373       1.01288402       1.47816279       0.93797990      -1.55945783
O       -8.20338974      11.21663715       2.33124009      -1.03889626       0.41704776       1.31380950       1.10792426       0.33241184       0.12430062
O       -6.37903310       8.71994834      -2.40726857      -0.22104279       0.94901171       0.06659443       0.13137097      -0.00464760       1.16466274
O       -7.55065220       9.31247819      -4.04258098       1.37024679       1.63954782       1.34297569      -0.15803724       0.26113931      -0.11087109
H       -9.01096424      10.19246517      -4.50740487       0.49502222      -0.11495944      -0.03404357      -0.55773970       0.30863324       0.69728374
H      -10.34138186      11.30349185      -4.16428159       0.06799466      -0.12407160      -0.08836029       1.19643369      -1.70470828       0.37232270
H      -10.74440535      12.07682801       1.31372686      -0.02091524       0.02272077       0.16845941      -1.05680482       0.56919666       1.02212618
H      -11.81200627      12.57378975      -0.00047708      -0.03180163      -0.17593244      -0.20524779       2.24493742      -0.37647193       0.74310433
H       -6.49213557       8.90348458      -0.53796508      -0.11576284       0.01346555      -0.04386677       0.46319212       0.16798150       0.29037575
H       -6.85265261       9.71953023       1.03020012       0.13083466      -0.11729653       0.20787953       0.13479995      -0.50537183      -0.51154003
C      -23.21375839      36.30971073      31.60074627      -1.37267572      -0.40011960       0.94410254       0.20697440       1.96356766       0.64106998
C      -23.80856836      35.02419359      31.37436742       0.83187476       0.62729457      -0.50087257      -0.72341894      -0.01863663       1.29981089
C      -23.29714090      36.85706598      32.94530976       1.86033543      -0.71286588       0.44110457      -0.01112155       0.70757765       0.94101907
N      -22.71722764      37.10527089      30.63362899       0.13576701       1.00985959       0.55862456      -0.96917736      -3.62311122      -1.26018283
C      -24.39980762      34.30334698      32.49323477      -0.59037883      -0.62485154       0.60898051      -0.17747712       1.79082586      -0.02519498
N      -24.13024217      34.63249380      30.04301626       1.06602604       0.26462230       2.24508425       1.33289030       0.19170615       0.52327487
C      -24.14525514      34.78247621      33.84171534      -1.46480994      -1.19245682       0.11818910      -0.21610537      -0.80720978       0.58354194
N      -25.30589517      33.35961088      32.27452262       0.61906684       0.93335136      -1.90587651       0.50142739      -0.57451725      -0.94191362
C      -23.70492268      36.11909304      34.12099732       1.07537134      -1.78171694      -0.61199384       1.18784848       0.73287747      -0.74055327
N      -24.44259387      33.83687310      34.93117939      -0.04348338       0.57275428      -0.29814684       2.09740369       0.98532838       1.16231512
N      -23.54719327      36.62160631      35.38056880       0.64194682       0.89686395      -0.57392129      -0.68859619      -4.52624371      -1.62916258
N      -22.89110990      38.28042532      33.20908468       0.30502553      -0.80812021       0.91928482      -0.55026553      -0.26564674      -0.74050719
O      -23.39219913      35.08061711      29.16250047       1.03319074      -1.43299298      -1.14935872      -0.66874112      -0.40516295      -0.58675729
O      -25.04035685      33.83987629      29.81184826       0.06901930      -0.49094567       0.13472262       0.01038321       0.20348414      -0.70003229
O      -23.95529661      34.01115312       9.77429354       0.53471064       0.10893833       0.46771311      -0.37603212       1.12246827      -1.43645056
O      -25.01128414      32.79769858      34.71213918       0.35846988      -0.23789553       0.91384536      -1.10645974      -0.98331097      -0.46777327
O      -23.26632393      38.87830120      34.20692798      -0.20222846       0.51926174       0.52688000      -0.55019769      -0.77536583       0.95237461
O      -22.25263698      38.90648407      32.38643405      -0.74144684       0.96004457       0.23098967       0.47752089      -0.35272846      -1.00536439
H      -22.30277227      37.96898681      30.78132316       0.09144644      -0.03856685      -0.27948457       0.62950110       1.40277020       0.78729732
H      -22.57126607      36.62826123      29.73526162      -0.39692455       0.27578405      -0.20474683      -0.22709087       0.54906393       0.74796933
H      -25.51668386      32.73692236      33.02483734      -0.14679220      -0.26314631      -0.25783298      -0.19948359      -0.13957893       0.26124156
H      -25.41884453      33.08984723      31.29409046      -0.45160095       0.16033242       0.20971035      -0.22876989       0.09395400       0.63697827
H      -23.49998204      37.58435309      35.53022701      -0.36957574       0.10141996       0.19883987       0.28848544       1.20103405       0.28082474
H      -23.54320285      35.79147623       9.69371493       0.06429586       0.27297598      -0.15293597      -0.20936111       1.53392794       0.49821935
C      -60.43482811      14.91774299      14.02803031      -0.48737171      -1.11790125      -0.38737987       3.24175257      -2.02477660      -1.55056027
C      -60.21949076      14.14759768      12.84090465      -0.26561810       0.91469659       0.15765993      -0.40330248      -0.15586636      -0.45592858
C      -59.16313887      15.28243022      14.71203718       0.62436705       0.02603968       0.14506989      -2.76274765      -0.41693399      -0.71280249
N      -61.64417392      15.18722023      14.46561102       1.93550378      -0.41480310       0.67634060      -1.55690858      -1.05236892      -1.42661772
C      -58.98782700      13.85161592      12.14252356       0.05346840      -1.33203362      -0.52753345      -2.81288528       0.54198666       1.94721529
N      -61.49319119      13.99996487      11.99649081      -0.36986163      -1.17478710      -0.65616909       4.32982518       6.08344802      -0.35446743
C      -57.86006662      14.27267946      12.89117335      -0.14981299       0.89501918       0.82516118       0.73897740      -0.12027026      -0.97059015
N      -59.00506957      13.19258270      10.95620687      -1.48834660      -1.25256421      -0.55222516       1.29792620       0.37573352       0.21765418
C      -57.89376296      15.01345903      14.10859907       1.36212199      -0.35255207      -1.06358924      -1.41550560       1.54599498       1.15447545
N      -56.59297649      13.73564874      12.39873629       0.02109299      -0.07677362       0.92551442      -0.62189495      -0.51137240       1.29465828
N      -56.83314633      15.66396185      14.65790280       1.24953916      -0.97169726       0.43165588      -1.41744444      -2.25996375      -3.46812276
N      -59.34534832      15.99599648      15.92615910       1.02545940       1.06338387       0.13557987       2.28783788       1.03612124       1.09489643
O      -61.59282799      15.04084046      11.29102932       0.21663792      -0.77428265       0.09639394      -0.81570744      -2.13117487       0.25351363
O      -62.23915658      13.12701045      12.09051859       0.88782781      -0.05264029       0.53031062      -2.71637861      -3.28886388       0.18931395
O      -56.38482187      13.71078451      11.17307167       0.41710971      -0.26723826       0.16931061       0.53786722      -0.16947522       1.71505973
O      -55.92286821      13.21971226      13.30951192      -1.16481297       0.35371519       0.73477880       0.49297205       0.90674938      -2.16164464
O      -60.42784749      16.25165821      16.40871915      -0.38815712      -1.23563684      -0.13141175      -2.10253992      -0.29909307      -0.25347464
O      -58.37435289      16.42214600      16.58001169       0.43361192       0.81273118       2.12134398       0.96201932      -0.68147588      -0.74682798
H      -61.65770541      15.70739817      15.27323490      -0.12057864      -0.69523533       0.21132473      -0.48112570       1.31103073       2.06108824
H      -62.52006462      14.74133927      14.18248437      -0.10196190      -0.19696025       0.21867658       1.10717600       0.22541732      -0.29146387
H      -58.04999339      13.17484086      10.56433758      -0.51154411       0.24562337      -0.21099754      -1.16720094      -0.50912170      -0.22043134