1296
Lattice="-47.34331023646808 -2.210844437209472 22.708012198575204 0.0 15.396201014329677 10.679122167671428 0.0 0.0 -26.76283087955379" Properties=species:S:1:pos:R:3:momenta:R:3:forces:R:3 energy=-1487782.399847176 free_energy=-1487782.399847176 stress="0.006888380904847875 -0.0006486464325315553 0.00032442160244450994 -0.0006486464325315553 0.003184059330011542 0.0017178976039514385 0.00032442160244450994 0.0017178976039514385 0.002659287113024576" pbc="T T T"
C      -25.87115522       1.74373461       7.61416040       0.88405726       0.18895308       0.52645127      -0.13503220      -0.56545556      -0.32225660
C      -26.28283558       0.57072293       8.35723463      -0.10535640       0.14161600       0.18624646       0.81449999       0.16578099      -0.24417183
C      -26.91122958       2.63506353       7.12406884       0.39417962      -0.46245014      -0.14558822       1.41284371      -1.43822508       1.41949753
N      -24.54062376       2.00000455       7.35114736      -1.07423784       0.84852955       0.94699090      -5.54824174       0.49442360      -1.10733211
C      -27.67226792      15.73200003      19.41814363       0.50539438      -0.65180764      -0.12510543      -0.68847034       0.32729320       0.22738835
N      -25.23875816      -0.48738061       8.57836247       0.02096331      -0.38845990      -0.08007433       1.50768943       1.31139074      -0.42899102
C      -28.61435084      16.80976252      19.17966661       0.45353012       1.30266410       0.22358404       0.69811799       1.32347966      -0.53529552
N      -28.02218173      14.58042379      20.06151148       0.30006956       1.22899961      -1.16807108       1.57691260      -0.45207965      -0.99884129
C      -28.18280939       2.71151684       7.75946993       1.21848654       0.48440489      -1.11327516       0.01127317      -4.64627525       2.12784784
N      -30.04129481      16.60769906      19.47449173       0.12716770       0.41840175       0.39707129      -1.81928479      -0.80283268      -1.98944427
N      -28.99725464       3.71970283       7.74318370      -0.05116661       0.35619826      -0.67909305      -0.62076283       0.68577426      -0.97789827
N      -26.41944904       3.73915277       6.37626832       0.44018199      -0.74363089       0.36569655      -0.69523785      -1.93128502       0.06946318
O      -24.01318356      -0.24885248       8.55069158       1.47461741      -0.71053559      -1.23224458      -1.56404007       1.32334176       0.20201605
O      -25.56580263      -1.63714194       8.72774509       0.15426286      -0.05398464      -0.23618579      -1.74168467      -1.46047536       0.41616952
O      -30.89783542      17.52898547      -7.37300157      -1.45721591       0.55932101      -1.29405082       2.30717954      -0.44318283       0.61773380
O      -30.49102484      15.43743488      19.54649089       0.01272347       1.39403949      -0.79748242       1.40125361       1.16777217       0.83764446
O      -25.57035810       3.63613077       5.54387944       0.54688142      -0.15042170       0.22672165       2.55427230      -1.25033104      -1.50919613
O      -26.96963235       4.75452236       6.55197945       0.60676134       0.06791399      -1.31999212      -2.30381691       4.72003769       0.64603337
H      -24.31195515       2.57296178       6.59878395      -0.01471139       0.27875340       0.19788413       0.49665612       1.04021111      -0.93796482
H      -23.95822970       1.63623311       7.97429445      -0.12979400       0.09442673      -0.13177555       3.13575658      -1.99243459       2.43509304
H      -28.98756380      14.34395112      20.31484293       0.05691171       0.02727283      -0.18352508       0.81575507       0.61277802      -0.74392497
H      -27.28350725      13.83052211      19.92221117       0.11438364       0.06733809      -0.01499550      -1.50029963       1.16830166       0.62644801
H      -28.74478242       4.32021944       6.98203463       0.11089475       0.18827863      -0.15936574      -0.43386068       1.20981045       0.35203936
H      -29.92999342       3.64890050     -18.62929421      -0.02305290      -0.23022672      -0.28136231       0.22473627      -0.24933379      -0.22096062
C      -47.87349873       2.75748903       0.82183125       0.19322944       0.33536081      -0.47991032       0.60125703       0.49138184      -1.13761643
C      -46.87391486       1.99171938       1.54615496      -0.55572095       0.52190243      -0.14630490      -0.64834011       1.24466568      -0.84508270
C      -48.90770556       3.39036729       1.50084888      -0.57190203      -1.04145191      -0.45100148      -3.16827008      -0.34658066       0.80203727
N      -47.86944384       2.94386234      -0.51167716       0.81016913      -1.25308034       0.44160996       1.59970343      -1.11168855      -1.14244731
C      -46.98122263       1.89702984       2.94879767       1.13123433      -0.03734474      -0.42831803      -2.13176535      -1.74216933       1.89178277
N      -45.88978934       1.33786556       0.75523602      -0.54862947      -0.35740854      -0.02488970      -0.13250866      -1.10667790      -0.59526045
C      -48.09767100       2.58295201       3.56302961       0.66845641       0.15706535      -0.99875734       1.90038077      -0.17819237      -2.66581301
N      -46.35354643       1.01936993       3.77701128      -0.45935632      -1.69540221       1.73499714       2.69203812      -2.66167908      -0.84582649
C      -49.16564778       3.17162855       2.89780312      -1.28478895       0.11607689       0.19907925       2.19459314       1.44974269       0.34621589
N      -48.37126723       2.29779945       4.87109556      -1.30741039       0.37427237       0.90976200      -3.01558020       3.05358902       5.66241593
N      -50.19992332       3.68556269       3.58287394       0.45777363       0.21500131       1.22883720       0.98561821      -0.95727153      -1.35976846
N      -50.18050466       3.67377991       0.68680110      -0.54047333       1.20307721       1.16217562       1.92622282      -0.08327935      -0.65803187
O      -45.14697643       0.54722842       1.30940715       0.12337267      -1.05820792       0.62063491       0.60710941      -0.35106977       0.95256453
O      -45.84787820       1.46163205      -0.46980395      -0.33861629      -0.39938692       0.52914564       0.20052316       0.43294344       0.71173744
O      -48.65319236       3.33933473       5.63237933      -1.03099823       1.46049353       0.50443959       1.46757178      -3.09895556      -2.05727586
O      -48.59745524       1.17949241       5.25195108      -0.29660351      -1.43749870       1.81619906       0.64313280      -0.40790684       0.15196892
O      -50.06949441       4.34702397      -0.33632901       1.04259318       1.05567176       0.04386186      -0.60796792      -0.18262382       1.19466507
O      -51.19422548       3.08360468       1.02069560       0.24524693      -1.41761304      -0.34211110      -0.01956511       0.48170686       0.02028945
H      -47.24160617       2.41649241      -1.15738044       0.21532031       0.19388032       0.04182791      -0.61948786       0.64976185       1.43584996
H      -48.31201609       3.75237798      -0.89826741       0.19997610      -0.01166839      -0.28125466      -0.52268053      -0.07058213       0.12988917
H      -46.59498157       0.62688166       4.73191435      -0.23612598       0.31243658       0.18963715      -0.39780098       1.71462929      -1.95406932
H      -45.71040572       0.31223612       3.29952245       0.02836326       0.09689497       0.14782351      -1.14618576       1.98611164       0.53249760
H      -50.88768665       3.81643042       2.94107810      -0.13873422      -0.17087819       0.32836779      -3.03302453       1.02465979      -1.29542122
H      -50.28339919       4.09477100       4.47613022      -0.11771321      -0.25473492       0.04007033       0.67308279      -0.26420769       0.78737452
C      -49.98330257      -1.70409203     -29.01512689      -0.20906278       1.21468757       1.20461469       2.89408753       0.17011778       1.40832824
C      -48.59639695      -2.02519040     -28.55326874      -0.92534023      -0.73059780       1.30742349      -3.93070645      -3.04740719      -4.30736389
C      -50.57551316      -2.50235758     -30.01872928      -1.24824755       0.09373108       0.46448923       0.46263020       1.63421881       1.48845772
N      -50.51142787      -0.62354997     -28.44043079      -0.94639293       1.25111624       0.67676421      -0.39856312       0.43978656       0.79038629
C      -47.92224507      12.25415057     -18.46474552       0.27140965       1.42478567       0.38014058       1.03588062       1.44628570       2.36387301
N      -47.88058239      -0.97621662     -28.00225329       0.09147254       0.34308219      -0.74773012       0.38334023      -0.84253417      -1.66954371
C      -48.54581421      11.49431021     -19.48121429       0.36642854       0.18146571      -0.30877131      -0.22468354      -1.41231043      -0.75712717
N      -46.70731967      11.98866605     -17.89047749       0.18071356       0.19382205       0.59330459      -1.98230238      -0.85140614      -2.31180022
C      -49.85221185      -3.54607576     -30.58532937       1.11445788      -0.31117128      -1.64849677      -2.15810387      -1.18637820      -3.49370366
N      -47.89740215      10.25862669     -20.01093031      -0.69383535       1.11488942      -1.28078682       1.90032297      -0.75832555       2.70079200
N      -50.51434787      -4.11984588     -31.70831384      -0.64827612       0.45714090       1.34695407       2.91535997      -0.54142248       1.89188488
N      -51.90156671      -2.11459045     -30.51017314       0.20453306       0.73822593       1.22565338      -0.75033725       1.72710126      -1.95624940
O      -46.97839981      -0.52530178     -28.69680926       1.50619174      -0.22279093      -1.10825379      -0.09767710       0.38070697       1.41770563
O      -48.32630327      -0.59854758     -26.95831888      -1.51048870       0.21987341      -0.27842886       0.66843340       2.13524919       2.39496011
O      -46.89107106       9.82351095     -46.10125931      -0.21482381      -0.54252451      -1.53011583      -1.62259794       1.50559973      -1.15239220
O      -48.29491872       9.57430511     -20.92313508      -0.81214838       1.61321463      -0.81835447      -1.03901252       1.09222710      -0.44575287
O      -52.17026046      -0.92942586     -30.87812209      -0.47205712      -0.72932560      -0.21442330       1.40871930      -1.93925699       1.92509566
O      -52.70789855      -2.99928425     -30.72283146      -1.89476776       0.81186823      -0.58359207      -0.14719692      -0.36958457       0.52385570
H      -51.34797613      -0.20148522     -28.77756137      -0.10952162      -0.35608108       0.54426153      -0.31264600       0.03680722      -0.28767931
H      -50.14264860      -0.28827124     -27.53631229      -0.15373880      -0.10848822       0.26200365      -0.48969482      -0.35188440      -1.20608398
H      -46.30102469      11.15931377     -18.33044473      -0.16403678      -0.25726069      -0.24485929       0.74674212       0.45517298       0.80037389
H      -46.36395973      12.62494319     -17.20590723      -0.02576440       0.31786372      -0.10074340       0.60135663      -0.34197828      -0.02609741
H      -51.38080782      -3.75814725     -32.01911010      -0.31694078       0.23027408      -0.20149302      -0.35685685      -0.03744568       0.14599560
H      -50.16818669      -4.98959582     -58.86369841      -0.30724468      -0.31810251       0.02304353       0.07969687       0.49061414       0.25136455
C      -35.01083881      -6.55028598      12.65919714      -0.17994880      -0.52802476      -1.46259288       0.41329770       0.10503612       4.08173596
C      -35.15835626      -6.69712117      11.32167962      -0.25275045      -0.36344623      -0.28212611       0.33064364      -0.83843678      -1.56986075
C      -35.72363307      -7.40407125      13.57292515       0.15675241      -0.36765940      -0.23224643      -2.51434804      -1.84362055      -0.61210048
N      -34.22305002      -5.63882657      13.23862887      -0.63214374      -0.50663802      -0.14912848       1.56627885       0.41079124       0.36076145
C      -36.14714806      -7.57796401      10.73738424       0.24957082       1.02493454       0.11043227      -0.45821305      -0.58922707       1.32609478
N      -34.09201121      -6.18052074      10.53987594      -1.69495822       0.02456313       0.18089824      -0.12609262       1.74285007      -2.18499803
C      -37.06856847      -8.30771452      11.61963672       1.80183963       0.56203637      -0.71522440       1.50313223       0.17698203       0.07191655
N      -36.23799500      -7.67039333       9.44931726      -0.50068126      -0.02628457      -0.19136107       0.05286132      -0.06507436      -0.47851677
C      -36.80000488      -8.26985447      13.04896398      -0.12183593      -1.16372333      -1.45061639       0.06989086      -0.09786984      -0.25240831
N      -38.00548857      -9.30092838      11.08530723      -0.34197915       0.32533048      -0.32405148      -0.48740446       2.04435594      -2.28169059
N      -37.47315029      -9.07688890      13.87412855       0.89246395      -1.08235509       0.84898219       0.18141508       0.57630406      -1.24925608
N      -35.42323226      -7.62543720      14.96708754      -0.36241375       0.27505389      -1.00888855       6.18170799       1.24341418       0.97849680
O      -33.39748232      -5.18095445      10.83022704      -0.55906971      -0.15778747       1.13629803      -0.60662027      -0.58586425       1.34441479
O      -33.93204726      -6.62365629       9.41342345       0.73333428      -0.27760656       0.38652099      -0.03975239      -1.19382696      -0.48086822
O      -38.01732818      -9.56820638       9.83688551       0.58880286      -0.86259771      -0.10234369       0.40766662       0.52598803       2.29736252
O      -38.89853418      -9.69757118      11.80672543       1.20151075       0.13043682      -0.32940881      -0.01413332      -0.56643514       0.21523511
O      -36.13817289      -8.00779180      15.83663096      -2.07739654      -0.52836942      -0.72127602      -3.95031810      -0.83346884       0.36291826
O      -34.20555591      -7.48702084      15.39054672      -0.29479424       0.48306093      -0.59267216      -1.30592145       0.65294439      -2.59426512
H      -33.85078648      -5.89602538      14.15292875       0.38935156       0.10438488       0.29112378      -0.35340439       0.18897124      -0.09833681
H      -33.53263778      -5.08590636      12.71035410       0.01907995      -0.12921968      -0.32692893      -1.12067607      -0.73628257       0.06017575
H      -37.02750371      -8.18780302       9.12133926       0.08413203       0.15315028       0.15106725      -0.05753246      -0.53053966      -0.56840809
H      -35.43050428      -7.36928663       8.92047288       0.14297712       0.02527169       0.07933746      -0.37103426       0.18607730      -0.33373879
H      -37.27897726      -8.94720582      14.82566762       0.03156970      -0.10015072       0.18514884      -0.16051941      -0.20439438       1.39389975
H      -38.25154216      -9.62729932      13.54039660      -0.25588919      -0.03847270       0.22216129       0.24602061       0.10420545      -0.16248534
C      -20.97739765       4.15134889       5.85807072      -0.11713735      -0.38903427      -0.02789363      -0.37164077      -0.76794139      -0.32300037
C      -20.97855618       3.75407242       7.21475866      -0.13829766      -0.11346509       1.23110139      -0.80260446       0.03444788       1.20630465
C      -21.02541972       3.11658800       4.85463679      -0.14620149      -0.42823456      -1.10635131       0.03701520       1.31499669      -0.35127351
N      -21.03744044       5.43109726       5.48916567      -0.86407824       0.56533482      -0.14672607       0.41224278      -1.66867023      -0.32100212
C      -21.07615626      17.74416304      18.22249831       0.43786516      -0.47603544       0.72870627      -0.48613083      -0.68056128      -0.16315778
N      -21.27552304       4.77621531       8.25455372      -0.96684527       0.85929848       0.01226628       0.84395806       0.80087725      -1.19522737
C      -21.40426946      16.82527491      17.19061945      -1.63370612       0.96985772      -0.08792010       0.37258096       0.14156357      -0.50598795
N      -20.91421381      17.23500477      19.46813613      -0.80482567      -1.41759185      -1.72228375      -0.80704466      -0.33034145      -0.38522952
C      -21.30577091       1.75797030       5.14004587      -0.41943139      -0.17497935       0.81034459       0.19808136       2.37533855       1.42731713
N      -21.58587224      15.41669889      17.51680244      -1.08113293      -1.14504321      -0.83568510       0.10092218      -0.01249074      -0.07982237
N      -21.35776063       0.85958581       4.20606256      -0.37656788       0.27229397       0.84867279      -0.00463484      -3.20190736      -1.87748742
N      -20.97803682       3.56728518       3.43556591      -0.22318593       0.34636349      -0.47441377      -1.42711836      -2.38198414       2.39142294
O      -21.24565213       6.00193176       7.97566695      -0.88935407       0.66822581      -1.27444767       0.09764273      -0.75731024      -0.80854414
O      -21.53204784       4.47864706       9.38579938       0.23429962      -0.11931971       0.69051642      -0.13290141      -1.60765736       1.19703823
O      -20.88337033      15.01976090      -8.34071211      -0.72910490       0.35576322      -2.08366696       0.73455085      -1.21560486       0.77319351
O      -22.35170899      14.68688931      16.91922359      -0.32130272      -0.66400873      -0.03279131      -0.07548214       0.60870310      -0.52370034
O      -20.36612993       4.55562386       3.15865628       1.43109628      -0.25734652      -0.67783664       0.86286561       1.11097127      -1.01723598
O      -21.64732354       2.90314161       2.65541881       0.78231507      -0.10373226      -0.32735009       0.26091634       0.31023735      -0.85310594
H      -21.11371017       5.49425651       4.49979753       0.13753240      -0.04092467       0.12100908      -0.13080417       1.36968734      -0.42859779
H      -21.30063832       6.05963456       6.19814257      -0.40590697      -0.08906882       0.16488314      -0.04094493       1.05152707       0.37365868
H      -21.37750289      16.34871201      19.74175092       0.23069606      -0.46987590      -0.11134319       0.89234951       0.98994367      -0.53838905
H      -20.96018281      17.91708407      20.15602748      -0.08487571       0.26720996      -0.10833829      -0.03494049       1.37530992       1.49808421
H      -21.75421114       1.00940763       3.28987016       0.02326348      -0.29539152      -0.19037795       0.49844132       0.47150440       0.27522465
H      -21.15879387      -0.11389389     -22.32197659       0.11908249      -0.06592687       0.05651505      -0.63076254       0.66689345      -0.00134821
C       -0.81186639      14.48099315       0.88636519      -0.54757021       0.28259478      -0.66848103       0.95964319      -0.02843122       0.06663465
C       -1.77320169      14.11691217       1.83978859      -0.91888375      -0.67385738       0.10165672      -2.13419578       0.90540083       1.07058846
C        0.13251784      13.48344805       0.33558857       0.29093785       0.66949259       0.04203020      -2.06850510       0.80989249       0.86847787
N       -0.77984459      15.73665384       0.58924426       0.05059185      -0.68015733       0.26118796      -0.83053300       4.50131711      -0.21535613
C       -1.90760356      12.79562922       2.29230899      -0.74243158       0.12496619      -0.24464052       0.06066216      -1.18946932       0.98638050
N       -2.81107557      15.10675082       2.32687131       0.90752108       0.43610049       1.90111383       0.41126783       0.32734324      -2.04930360
C       -1.17192373      11.78999379       1.60868683      -0.83581307       0.13552624       0.31627787       1.84817466      -1.12565754      -0.36932841
N       -2.68089451      12.49373068       3.32861854      -0.31602800       1.17113234       1.28934611      -1.50107287      -1.92724662       0.36933380
C       -0.12574725      12.12795136       0.59448388       0.60168806      -0.66727065      -1.07978009      -2.99387020      -0.11124359       0.78387651
N       -1.21756612      10.38470743       2.12191967      -1.11312940       0.06792874      -0.25308709      -0.59537168       2.54165864       0.62609709
N        0.34400846      11.20686402      -0.18379639       0.05550365       0.54293503      -0.32970449       1.25618553       0.00453402      -0.76507301
N        0.97413303      13.92099005      -0.67998414       0.99934286      -0.47306605       0.11083639       1.09414708       1.62582115       1.16899037
O       -2.99601077      16.16269206       1.65374697       0.40007403      -0.05244872      -0.46669455       0.16620412      -1.23229535       1.24621145
O       -3.55114880      14.86140411       3.26592462       0.55335303      -0.73305761      -0.42217182       0.41842585       0.17330691      -0.10553548
O       -1.63001936      10.26684683       3.30573580      -0.86297275      -0.32796078      -0.30437177       0.92320885      -1.34898344      -2.12861640
O       -0.86379091       9.46785942       1.39663837       1.15346182      -0.13632057       0.57180752      -0.17084662      -0.05264511       0.81952699
O        1.66313442      13.14018228      -1.34669060       0.53792579       0.84088415       0.47992675      -0.89662252       1.19753551      -0.03364960
O        1.10608533      15.18737136      -0.65948271      -0.02446986      -0.97877264       1.37055168       1.37551164      -2.62773265      -2.22673064
H        0.05369629      16.20516460       0.18937486      -0.13285062      -0.19892811      -0.06036784      -1.19139723      -1.13033796       0.17866092
H       -1.60636076      16.38738714       0.89181502       0.18237112       0.07410966       0.41889803       1.99391782      -2.19594086      -0.40828218
H       -2.92099597      11.49036496       3.54469539       0.44546451       0.10936751       0.21588069       0.99593853       1.87691151      -0.50353212
H       -3.25532039      13.19167207       3.78319706       0.27848734       0.04933257      -0.27628492       0.42195564       0.11003490      -0.55033042
H        0.88825949      11.42706574      -0.98755113      -0.03634212       0.00003663      -0.31310006       0.42241425       0.47286605      -0.08111414
H        0.17424952      10.27474243       0.00872461      -0.13652182       0.20488415       0.03379539      -0.48913806      -1.92480988       0.49407821
C      -32.00868365      28.19471965      43.52383238      -1.04838114       0.74597909      -0.08102780      -0.63071367       0.68112593      -2.16225817
C      -32.60540164      29.31739008      44.14962079       0.28804216      -0.23753943      -0.68488914      -1.64585982      -1.23412949      -2.72076560
C      -31.06883886      27.54838401      44.34164374       1.51519181      -0.40185971      -0.58359345       0.64975936      -2.00441819       0.15893390
N      -32.31127500      27.92847327      42.16396773      -0.43118581      -0.85037356       0.77895500       4.34096827      -2.58302479       4.44359780
C      -32.45146467      29.72585623      45.43472295       0.24755336       0.18320613      -0.64400781       0.95619546       1.84200224       2.04427677
N      -33.78955362      29.84292866      43.44782866       0.24079937      -1.28215376      -0.03685214       0.07391236      -0.75254154       0.83716925
C      -31.51592632      28.96306776      46.21263587       0.61113764      -0.89577639      -0.64680689      -0.57124062       0.18144811       1.09316531
N      -32.98873200      30.85750685      45.98393656       0.30639171       1.40257375       1.20171565      -1.38345006      -1.14992513      -3.87311683
C      -30.90004898      27.78278352      45.75557299       0.85070423      -0.71578633      -1.01058072      -0.58885573       1.22740308      -2.02868310
N      -31.33220136      29.28232167      47.58178550       1.44115840       0.83972400       0.23839941      -1.87806717       1.39218018      -0.21367218
N      -30.20100456      26.96704927      46.49153743       0.55563874       0.21731256      -0.27508978      -0.71812916       1.76404477       2.53054184
N      -30.47762213      26.36018734      43.85282038      -0.29407188      -0.41253713       1.65578164       0.93581811      -2.14025049      -1.39180304
O      -33.85324316      31.05333002      43.42825709       1.16478309      -0.14765127      -1.23442976      -0.86595810       0.39813399      -0.65533479
O      -34.65219488      29.04264412      43.05614683       2.26108361       2.40382779       0.72542558       0.84982282       1.37431589       0.00237214
O      -32.07190580      30.12542335      21.39544736      -0.08624019      -0.77205544       0.47062364       1.19855714      -1.11351792      -0.25752460
O      -30.46406393      28.70143471      48.17589916       0.35812871      -0.51339551      -0.16703539       0.98531040      -0.07787040       1.93122816
O      -29.65929295      25.64274251      44.51423644      -1.05897502       1.31901428      -0.72133425      -1.19858233       1.52438035      -1.43336890
O      -30.79158181      25.98144234      42.70548846       1.79527494      -1.73678025       1.11066230       0.53215990       0.34644347       1.01842122
H      -31.83126494      27.06793273      41.76220084       0.13825400       0.13359336      -0.03490367      -1.07404971       1.93535421       0.71340265
H      -33.09212085      28.36945434      41.87543552       0.01226139       0.10430331       0.05745082      -2.62767993       1.06149222      -1.52550688
H      -32.87906457      30.80755873      46.97752860       0.40831881       0.08289660       0.25849682      -0.52077713       0.90713139       0.71821437
H      -33.68558018      31.37285812      45.35107772       0.19224350      -0.34825901       0.04451085       1.67530887      -1.09168983       1.93116584
H      -29.66239162      26.31850236      46.00034163      -0.03861602       0.22938238       0.18727859       0.93513803      -1.53217843      -0.35920436
H      -30.13531012      27.33888775      20.70027257       0.22546669      -0.23867093      -0.26191064       0.65088839      -1.03995871      -0.91450244
C      -61.35848298       4.71571951      11.37230055       1.02824430       0.03008027       0.83095494       2.91082459       1.64137970      -0.16421160
C      -60.57559116       5.85066572      11.85859548       0.06122634      -0.78988980      -1.12480025      -0.90232809       1.84131816      -0.56889836
C      -62.12730548       4.96195648      10.27122171       0.57467422      -0.73799720       0.51843541      -1.65595139      -1.84401473       0.09129755
N      -61.10259647       3.53945084      11.84824866       0.04151861      -0.77659964      -0.42110119       0.53829241      -4.24765149       1.66168818
C      -60.88087137       7.20578712      11.41315610      -0.43005580      -1.63048420      -0.56513671      -1.57834532      -2.42300681      -1.42991861
N      -59.73203356       5.74532252      12.97277310       0.49077707       0.95604913       1.08096086      -1.33244148      -2.64196965       1.40924031
C      -61.86067740       7.38159483      10.35026279       2.00227993       0.59654052       1.51605161       0.41830718      -3.13056256       0.21423768
N      -60.38511276       8.27014904      11.89540863      -0.13693288       0.18917300      -1.16767346       2.40435189       2.97032805       1.89022522
C      -62.43857104       6.23482707       9.76833555      -1.30242208      -1.69101790      -0.68392950      -2.68946199      -2.10030130      -1.80878679
N      -62.24971067       8.58061050       9.81949546       0.43356466      -0.52181806      -0.10330362       2.09422912      -0.05997040       1.64843713
N      -63.33322275       6.13933275       8.71088101      -0.15411786       0.91041577       0.84574685      -0.95218634       0.97058968      -0.83640972
N      -63.16620673       3.79872830      10.15746417      -0.31758375       1.38627643       0.87545690       2.26678328       1.97988667      -0.56074468
O      -59.37224248       6.64097180      13.67175883      -1.07441963       1.05631909      -0.18053564       0.98762040       4.10788526       0.26275954
O      -59.49803599       4.62200766      13.42673733      -1.83078090       0.42670158      -0.36647001       0.56373795      -1.82067106      -0.66321053
O      -63.15977140       8.57237213       9.05817592      -0.90783207       0.67883420       1.67529181      -1.96933111       1.91776644      -1.76813159
O      -61.59610187       9.55689787      10.17217565       1.77490605       0.18859549      -0.38278279      -0.56300836       1.92095632      -0.88331448
O      -64.27348065       4.18224044      10.36566286      -1.29102863       0.42785968      -0.48280134      -2.13712387      -0.37608130       0.25864079
O      -62.81162964       2.65307879       9.98082099       0.36243393       1.10040265       0.35543994      -0.08809605      -0.04012463      -0.26644682
H      -61.40606927       2.58834682      11.47719223      -0.20944476       0.21127815      -0.09009894       0.12219080       2.52157092       0.39948155
H      -60.43254112       3.52708988      12.65021155      -0.19282818      -0.24626312       0.62653089      -0.79500979       0.01142980      -0.94156709
H      -60.61347490       9.15648354      11.40632193      -0.07335746       0.19585115       0.04701903       0.14996994      -0.86206700       0.62995023