1296
Lattice="-43.45938896850344 -4.454560425409563 18.75484829082805 0.0 16.427353402155287 2.330591143417613 0.0 0.0 -27.857373213449662" Properties=species:S:1:pos:R:3:momenta:R:3:forces:R:3 energy=-1487790.7072391573 free_energy=-1487790.7072391573 stress="0.001244417243089784 0.00122379397261823 0.001699558626624702 0.00122379397261823 0.004828030136426 -0.0014628459582662872 0.001699558626624702 -0.0014628459582662872 0.002243877919634457" pbc="T T T"
C      -31.40347323       6.31599742      10.61563505       1.07290038      -1.07516461      -0.93853691       1.87384634       0.14045526      -0.98291058
C      -32.19267765       7.09638848      11.47553220      -0.47403496       0.53883749      -0.14982406      -0.15489841       1.61377183       1.39431997
C      -29.98453871       6.63941255      10.34493940       0.01371750      -1.40306029      -1.41654325      -2.63436191      -1.49955762       0.29050894
N      -31.92843496       5.31220838      10.00338865       1.26763732      -1.30877932      -0.94427996      -0.96467044      -2.08266992      -1.22566085
C      -31.49768120      24.31638625      14.86006924       0.47801198       0.59650667       0.42158763       1.06301166      -1.14932774      -4.55089374
N      -33.62342200       7.02294560      11.47772535       0.72941458      -1.04370745       0.11801059      -1.02530727      -0.58802824       2.03960650
C      -30.05831163      24.47850211      14.58748812       0.54676947      -0.21305076       0.90416213      -1.05227094       0.80813405       2.83515009
N      -32.14913518      24.91507379      15.78311332      -0.23837121      -0.84374758      -0.94527871      -2.52288264      -0.58613930      -0.60747243
C      -29.27276907       7.46825441      11.22606826       1.80840643      -0.66568840      -1.11055330       0.30938963       0.69394519      -0.09612797
N      -29.36835874      25.13335328      15.68557504      -1.06427016      -1.46384175       0.79607903       1.65901576      -0.95376297      -0.12630561
N      -27.99442066       7.79835252      11.06824227       0.55062472       0.25390454       1.57804787       0.06061305      -1.28301996      -1.28068114
N      -29.34267805       5.87768491       9.37188590       1.01983644      -0.38591669      -0.45313006       1.13216719      -0.63891600      -3.10492631
O      -34.27759218       7.80715905      12.19913601      -0.92390461      -0.43330218       1.08248796       0.95170525       0.54985820      -0.45015701
O      -34.27497378       6.12675848      10.93903918       0.25481698      -0.65013215      -1.12016950       1.08379137      -0.36198712      -1.10595450
O      -28.18093410      25.44843579     -12.32063947      -0.68542417       0.01199591       0.45380601      -0.19809035       0.70521847       0.01722981
O      -29.86172134      25.24256874      16.79852069      -0.09303401      -1.01547600      -0.46555268      -0.85274832       0.38305867       0.02021185
O      -28.10854240       5.98195758       9.38865359      -0.86108174       0.25723435       0.84164266      -0.73236963      -0.91792451      -0.83538872
O      -29.91395027       5.23997962       8.37871651      -0.52828501      -1.38646013      -1.02477452       1.28633306       1.55985419       3.39988819
H      -31.47252747       4.56516828       9.44823137      -0.19588458       0.20217800       0.02814070       0.04756533       1.62611198       0.50092283
H      -32.92480054       5.30138926      10.02220960      -0.15226566       0.16174574      -0.20329831      -0.72048687      -0.47594537       0.17308516
H      -31.58004973      25.32558320      16.45688632      -0.05662910       0.01923285       0.20773274       0.53684251       1.08551206       1.75706748
H      -33.20014094      24.87201641      15.69680162      -0.33779744      -0.38859760       0.37145415       1.46082253       0.13293412       0.46614541
H      -27.38345793       7.24517621      10.43855606       0.00670248       0.15354651      -0.29356953      -1.24028789       0.52300767       0.66428995
H      -27.64005398       8.45941118     -16.14912105      -0.40319978      -0.12110313      -0.32709552       0.53126423       0.54773342       0.71701907
C      -47.88316529       0.14848863     -10.37497641      -0.94849713       0.15577072      -0.94223839      -2.91062715      -0.71426369      -0.10179234
C      -47.31343668      -1.13025189     -10.22900628      -0.17259482      -0.10055963      -0.36271661       1.90320844      -1.45333560       0.63344122
C      -47.02811266       1.23261929     -10.56928901       1.23891304      -0.82160396      -0.92389179       2.10353411       1.37313305      -0.78094052
N      -49.28058581       0.28938842     -10.38468151       0.17318485       0.60254127       0.79201180       1.45340431       0.97138220      -0.64825501
C      -45.85198584      -1.40598594     -10.13321025      -0.32115872      -0.09376663       1.02786908      -1.60580441       0.38736566      -0.78486775
N      -48.18571036      -2.29695885     -10.37362318       0.56244155      -0.06496511      -1.99685806      -1.91529251       0.17530874      -0.08431698
C      -45.01903339      -0.25608089     -10.08266278      -1.22404996      -1.08959382      -0.41676884      -0.72397876       2.13009157      -1.58667889
N      -45.25972972      -2.60348560     -10.15567851       1.14663459       0.57675220       0.23564148      -0.39240719      -0.53384383       0.40521920
C      -45.54333290       1.05097737     -10.54963144      -1.20496719       0.08573627      -0.88281647      -1.33753470       0.38883806       0.14616628
N      -43.63435330      -0.36043279      -9.86451287       2.19709655      -0.40722406       0.16608351      -0.67393216      -2.62425983       3.56482216
N      -44.70533351       2.02006523     -10.92905180      -0.15922945       0.31767093       0.78854718       0.26298787      -0.27181079       0.25650586
N      -47.57653546       2.55382389     -11.02531639       1.44511135       0.19766125       0.55668427       3.26562122      -0.26853399       0.49038154
O      -49.31859186      -2.38345696      -9.84220479       0.52579120      -1.57480166      -0.13927705       1.93969258       0.78847799      -0.38938891
O      -47.81386363      -3.14552557     -11.16339613       0.21863068       0.16971858       1.17895585       0.71610742      -0.51186402       0.04683909
O      -42.93822345       0.62071054      -9.71783701      -0.25039067       0.52341078       0.48370768       0.90661805       0.38517120      -0.72479874
O      -43.22051586      -1.49815470      -9.40730270      -2.41390503       0.07084099       1.61448251       0.01671876       2.56164018      -1.12093476
O      -46.76442627       3.41439841     -11.39190351      -0.47569945       1.00512895       1.24202825      -0.19137818      -0.49199223      -0.06757942
O      -48.74118655       2.82693431     -10.98573707       0.25397132      -0.10890603       1.41438739      -1.91041574      -0.48073740       0.21505552
H      -49.60692153       1.18876411     -10.75839741      -0.66073269      -0.06403041       0.28151462       0.27252741      -0.66795134       0.53200539
H      -49.93098794      -0.46119626     -10.57685759      -0.00043832      -0.34196635       0.18390532       0.74037884      -0.12637375       0.28569028
H      -44.27975963      -2.65215746      -9.84621468       0.25045573       0.16244773       0.19136389      -0.79022223       0.32909383      -0.44671999
H      -45.70936149      -3.46490086     -10.38445621      -0.42623100      -0.06043763       0.16700589      -0.74696924       0.14472079      -0.04083796
H      -44.99942255       2.90646190     -11.35198903      -0.10455169      -0.03425733       0.06599493      -0.37417456      -0.89855208       0.64954909
H      -43.74071515       1.92214844     -10.61505327       0.13936621      -0.54821979       0.16052031      -0.45917721       0.03062660      -0.34454591
C      -46.22952652      -2.42380429     -32.95667546      -0.42977739       0.46035033       1.04134567       0.12915804       1.54714822      -2.08066299
C      -45.04592379      -1.55617272     -33.09036272       0.27434514       0.00839238      -0.37933762      -1.86447540      -2.02651593      -0.25734007
C      -46.41786718      -3.20173963     -31.82995824      -0.55125227      -0.80666877      -1.22642057       1.93506593      -1.06775275       0.79894541
N      -47.13004387      -2.47072228     -33.93430012       0.19576384       0.11875068      -0.55788579       0.64860681       1.18840770      -0.66589834
C      -43.98628019      14.66846224     -29.84832630       0.45303721       0.15340956      -0.15318299       0.67920732       1.71807543       1.70946331
N      -44.92351328      -0.80181825     -34.24823339      -0.88453547      -0.42053946      -1.09572003       3.23086813       0.96922446      -1.47605595
C      -44.08698411      13.65930469     -28.87329603      -1.42194981      -0.71157395      -2.06737270       0.04451142      -1.56178969       0.64075350
N      -43.02557479      15.61089581     -29.80177721      -0.53718746      -0.94254797      -0.34149573       2.03952843      -0.37998600      -1.05605520
C      -45.26820551      -3.62606058     -31.07306453      -0.37961163       0.24338067      -0.29909169       0.12881670       1.65801925      -0.76730374
N      -43.02494862      13.49549192     -27.81924203      -0.81653708      -0.47133186       0.76504496      -2.32941836       2.08520324       0.07923656
N      -45.43342744      -4.64548657     -30.28143448       0.94859147      -0.66497523      -0.80237971       2.25307850      -1.68104028       1.70963863
N      -47.67007589      -3.62083923     -31.35157627      -0.69290819      -0.83830562      -0.10126448      -0.70300185       1.77726483       0.58729677
O      -45.71123984      -0.92198901     -35.18321228       0.55303295      -0.50698987       0.90907359       0.56228998       1.01732474       0.58190607
O      -43.84804153      -0.07596921     -34.41979814       0.53764048      -0.08979921      -0.22053611      -3.09264449      -1.69919352       0.37125716
O      -42.85399982      12.39647303     -55.21167167       1.33029800      -0.88394653      -0.40894050       0.69867351      -0.98377482       0.03778077
O      -42.58776132      14.52698909     -27.30003555       0.04449945       0.33687432      -0.82384641       0.27087809      -0.85900493      -0.82586479
O      -48.61873439      -2.87792345     -31.57895289       0.54588113      -0.14732666       1.45822706      -0.38501734      -0.54219612      -0.38355376
O      -47.72298813      -4.52941015     -30.53677345      -0.11692987      -1.39037296      -0.46939912      -2.01236144      -0.72910345      -0.46317116
H      -47.89885817      -3.06662538     -33.92275664      -0.50275671       0.04148066       0.10722468      -1.28506486      -1.12471505       0.65859857
H      -47.06964660      -1.87173710     -34.75640574       0.29407941      -0.02424838       0.10319356       0.20147833      -0.28539272       0.73222679
H      -42.24571123      15.55008455     -29.12008962      -0.07228784       0.13261481       0.25603882      -1.21465110      -0.17738926      -0.69615346
H      -42.83379842      16.02633582     -30.75647286      -0.27120631       0.21527815       0.03281970      -0.41083251      -0.35033070       1.77090209
H      -46.30214674      -5.19729098     -30.30540815      -0.01694704       0.12089479      -0.05730530       0.85709688       0.91636169       0.14571509
H      -44.70351636      -4.89737397     -57.47028307      -0.29289480      -0.29306025      -0.29023738      -0.20571098       0.16707888      -0.68200752
C      -37.12300957     -13.68299071       7.18228113      -1.08380162      -1.82585902      -0.10103372       3.22419044       0.03379736      -1.32152106
C      -35.83727082     -13.24548368       6.60131818       0.94403956       0.73650733      -1.15981573      -1.91540955      -0.92494161       0.04257774
C      -38.14427634     -12.81903384       7.10946445       1.98437409       0.13278496       0.24709017      -2.24145620      -0.09024915       0.91978632
N      -37.27723971     -14.89367715       7.64633317       0.18593296       0.26042038       0.53400953      -0.26426635      -0.72333447       1.09864364
C      -35.75704853     -11.96805869       6.00407903      -0.11298116      -0.20704924       0.42569050       4.18502894      -1.27312852      -1.47822006
N      -34.70311762     -14.20444009       6.64215424       0.40198449      -0.27761431      -0.24661152      -3.35895724       5.23032325       1.73447740
C      -36.82771620     -11.04456550       6.11518988       0.59717858       0.88523219       1.09318748       0.01924306      -0.97134077       0.50970866
N      -34.52582461     -11.73359484       5.29483652       1.32410985      -0.41259371       0.39828338      -3.05204681       2.17070900       0.32886879
C      -38.08414947     -11.51526067       6.68743936      -0.33683579      -0.04689162      -0.11337169       1.25349252       0.32506498      -1.07718215
N      -36.70270518      -9.76560911       5.57460038       0.50225484      -0.05010067      -0.49629682      -2.02841822      -0.08513935      -0.54686660
N      -39.17291235     -10.79676422       6.77161651      -0.65270643       0.54945613      -0.28183812      -2.22758251       1.18578137      -0.67915963
N      -39.51880504     -13.51526799       7.24891275       0.14702904      -1.58798376       0.02380592       1.39357786       1.01330821      -0.79765661
O      -33.66761380     -13.72447187       6.28338405       0.61698526      -0.58836130      -0.75537475       2.94418369      -2.13128504      -0.74404569
O      -34.85506402     -15.09351536       7.43517584       0.32199167      -0.00200657      -0.65046712       1.81885918      -2.66890669       0.15726330
O      -35.65793817      -9.33489477       5.15022019      -1.43882471      -0.13557552      -0.56045512       2.04021027       0.37679342      -0.24969914
O      -37.73502561      -9.10003252       5.42542554      -0.52404418       0.60356246       0.60697312      -0.54170357       0.19493858       0.40285140
O      -40.04758243     -13.62116026       6.16738575       0.47445727       0.30382698      -0.99524942      -0.84095683      -0.19723038       0.25653084
O      -39.92383873     -13.94894026       8.31174398      -0.63746301      -0.44182948       0.15370708       0.24053859       0.18418758      -0.16951015
H      -38.06155804     -15.05236018       8.25155405       0.11497297       0.14605320      -0.33704782      -0.00154767      -0.34829256      -0.08805369
H      -36.36965276     -15.27946351       7.87338364       0.37274234       0.14076315      -0.11667042      -0.49862341      -1.03591689       0.02112469
H      -34.48615730     -10.84081853       4.79064395      -0.19720900       0.02261843       0.23925789      -0.03025433      -0.85039286       0.44758333
H      -33.81873472     -12.45002556       5.17265197       0.22325254       0.06012285       0.22464984      -0.69776963       0.39516198       0.22324062
H      -40.00519103     -11.28726372       7.10993676      -0.00321779       0.12137318       0.03738672       0.56407174       0.73271594      -0.39032934
H      -39.29669839     -10.02338077       6.09537439      -0.42247798      -0.13446555      -0.20347606       0.30215693      -0.47055573       1.03392523
C      -17.01762461      -3.33177863      -0.77193586       1.05155653       0.26015540       0.40000145      -2.42050148       0.16332306       0.96717309
C      -16.70543734      -4.24172127      -1.84373334       0.73439325       0.78270410       1.60582487       2.07578144      -0.00599776       2.20883786
C      -18.21744859      -2.55335579      -1.03664313       0.47253296      -0.58219065      -0.10335379       0.68529127       0.36291314      -0.18140051
N      -16.55528156      -3.37111365       0.49936592       0.51471937      -0.17264924       0.73517905      -0.73051220       0.51860004      -2.21009928
C      -17.23792179      12.25517885      -0.82816602      -0.77154694       0.32908446      -0.94788565       0.30416879      -1.27746553      -0.19604561
N      -15.60491313      -5.14079881      -1.52567626      -0.22531745      -0.09523560       0.63669534       1.97523444      -1.75441934      -1.38775470
C      -18.34054159      13.11540251      -1.02810394       0.90446984       0.32723060      -0.88025959      -0.13916922       0.28285206       0.16616207
N      -16.83719644      11.39446598      -1.78098077       2.22253517      -0.11887384       1.60472791      -0.70017358       1.52449901       1.10672387
C      -18.93379810      -2.70143885      -2.24191622       1.63754262      -0.86546957      -0.87206980      -3.51823272       0.68413336       0.97317167
N      -18.99637564      13.23314083      -2.27188126      -0.44499106       0.13955048       0.44131408      -1.45743907      -0.54640499      -2.22212122
N      -20.27149989      -2.38921094      -2.24108002       1.30379824      -0.44106635       0.44407481       2.28761741      -1.28676644      -2.28084922
N      -18.83279251      -1.76808198      -0.03791792      -0.51690293       1.73269975      -0.13278715      -3.40028262      -0.62159244       1.60750510
O      -15.04553679      -5.19940493      -0.39550181       0.48479237       0.94917900      -1.71349893      -1.41373737       0.36683001      -1.80202815
O      -15.17082108      -5.87646679      -2.45434902      -0.67398635       1.19487547       1.08752121      -0.92040545       1.20061222       2.04503124
O      -20.23357470      13.47382660     -30.25246428      -0.31430798       0.81959716       0.01178509       1.79714409      -0.22664754       0.70243254
O      -18.33939813      13.03314488      -3.29712944      -1.11253751       0.71943997       0.74242843       0.24057011      -0.05363208       0.64546172
O      -18.20681931      -1.47423036       0.95787455      -0.01403340      -0.58195615      -1.05717204       0.88700217       0.73688817       0.26787209
O      -20.11799993      -1.54243529      -0.02238961       0.42525518       0.68575434      -0.06179052       3.33863696       0.35917527      -0.24875531
H      -17.01625713      -2.71928797       1.14202601       0.02873884       0.34777170      -0.17786180       0.56750012      -0.39306354      -0.12634019
H      -15.86230002      -4.07396945       0.64471654      -0.07187259      -0.01115056       0.24214024       0.48487266      -0.12328718       0.53182754
H      -17.17637443      11.64972617      -2.65695566       0.07348983      -0.13258958       0.40741327      -0.47509190      -0.18805527      -1.68711252
H      -16.40944598      10.53028649      -1.55700154       0.21706622       0.36133544      -0.26580485       0.71064852      -0.22997609       0.15249892
H      -20.61306722      -1.75570922      -1.53644580       0.04311945       0.27399867       0.21179310      -0.27373746      -0.30317933       0.09679646
H      -20.71055662      -2.68903318     -30.97995601       0.11070341      -0.28083940      -0.02376553      -0.09089611       0.78721544       0.67869183
C       -6.67561959       9.94827243      -3.58956477      -0.59496612      -0.79120935       0.25167404       2.43928885       0.90534956      -4.22210505
C       -6.41597043      11.40725068      -3.78571962       0.17792850      -0.73202097      -1.12484592       0.43243508      -0.58135096       1.45893709
C       -7.48825951       9.52703444      -2.56531803       1.69418637      -1.35320952      -0.67021585      -0.70230919      -0.98514203       0.47589757
N       -6.14225853       9.08457154      -4.57901690      -0.05404362       0.03648207       0.21994856      -1.65939615      -0.40549066       1.91896998
C       -7.06099496      12.35614526      -2.92888784      -0.52329588       0.24443333      -0.91192175      -0.67472425       0.18641704       0.01609266
N       -5.41089312      11.99706080      -4.72782586      -1.36996446       0.97534120       0.75062041      -3.44742527      -3.27355755       0.78323919
C       -7.83905883      11.80666900      -1.87416184       0.21113200       0.23822052      -0.45405161       0.37428442      -0.86986255      -1.23695432
N       -7.02454739      13.72704408      -3.02857345      -0.92466070      -0.15351174       1.06333381      -1.58002014      -2.04869399       1.78396023
C       -8.01780821      10.42943339      -1.64995054      -0.98836181      -0.33879231      -0.56682779      -0.70582271       1.27008965       1.46149986
N       -8.50225357      12.68152069      -0.93675303      -0.31447645       0.34276303       0.40184833      -0.22176518       0.54744825      -0.37575875
N       -8.75425114      10.03910178      -0.57716417      -0.01472799      -0.41788444       0.99019615       1.22468434      -0.16474312      -2.67427485
N       -7.83275204       8.08994832      -2.42797280      -0.71964410      -1.49627867       0.36247405       2.45706313       3.63685772       1.16923386
O       -4.64686148      11.25888042      -5.30392646       0.30655585       1.32403497      -2.74517152       0.95330401       0.10338491      -0.16644238
O       -5.63836865      13.13961465      -5.00096431      -1.11807982       0.47051572       0.02038963       1.38865645       2.05280221      -1.06229480
O       -8.09360912      12.62613932       0.19696142       0.30916003      -0.07544698       0.94016390      -0.22031047       0.43056110       0.74108873
O       -9.43896426      13.38552632      -1.32341481       1.64459003      -0.91765210       0.19744310       0.56701985      -0.32178060       0.17322291
O       -7.97392831       7.63291713      -1.30488855       0.25013429       0.49814580      -0.63752975      -0.90608325      -0.75784244      -0.51209837
O       -7.72274811       7.50367076      -3.45835809      -0.69136708      -0.05045249      -0.53879972      -0.69060159      -2.95236298      -0.87643922
H       -6.51430035       8.07143663      -4.55986800      -0.01854126       0.26342493       0.06173447       1.37561254       2.90027515      -0.32449450
H       -5.52767011       9.53012284      -5.25687374       0.17003136      -0.08282505       0.38694529      -0.31699952      -0.55558004       0.44011179
H       -7.87336739      14.16807807      -2.67490252       0.11430041      -0.29277155       0.23049329       0.83066689       0.23351588      -0.29457600
H       -6.55339414      14.08621549      -3.79837921      -0.22947684       0.14326417       0.12210927       0.50666501       0.83670220      -0.97829122
H       -8.66591309       9.09815529      -0.31717528       0.19983200       0.50653773       0.13569604      -0.34336568      -0.95899226       0.77771962
H       -9.16498110      10.75833876      -0.08580430      -0.34454519       0.38724248       0.24550812      -0.90068622       0.82447344       1.72694271
C      -25.14842080      31.83420869      25.44668103      -0.52246680       1.42490990       0.01827004       0.62078183       1.94015032       0.66481638
C      -24.76521536      31.93944544      26.87949061       0.75815308       1.26008368       0.28049953      -1.27011611      -0.86636525       0.67776594
C      -24.50862328      32.84571555      24.51321656      -0.86438951      -0.99689961       0.11566579      -2.41502045      -3.71704787       1.43088654
N      -26.08073751      30.95513745      25.07101323      -1.12255813      -0.28361848       1.10520350       0.45766867       0.23261046       1.85826689
C      -23.67401644      32.67471804      27.38638499       0.53274216      -1.44738022      -0.42173964       1.73570502       0.29381982      -2.95323523
N      -25.60603435      31.30078027      27.97624177      -0.16797927      -0.93198252       0.74849666      -0.37613373       1.10739206      -1.11580668
C      -23.15409903      33.58407062      26.35032208      -0.38437537      -0.20494876       0.16598506       0.34336459       0.52513566       1.43199320
N      -23.08663360      32.44043131      28.59599811       0.76828388       1.87752515       0.68653940      -1.40470265      -1.61761463      -0.41504284
C      -23.61067572      33.78148005      25.01634270       0.64004906       0.47974773      -0.15485936       1.29630003       0.28823184      -0.10840173
N      -22.02361057      34.41712221      26.75229628      -0.98676511       0.97292226      -0.25471621      -1.37158480      -1.19331050       0.69987803
N      -23.11883903      34.72806615      24.18797473      -1.12322454      -1.57357045       1.34947379       1.79959827       1.00067802       1.75593685
N      -24.85836660      32.71524918      23.13544772      -0.96810096       1.60693318       0.70610314      -1.42972447      -0.13992498       0.33286693
O      -26.63021726      30.71832481      27.64705853      -0.10970189      -0.34564005      -0.10687294      -0.42018656      -0.75722740      -0.86146150
O      -25.38810087      31.51701685      29.15029601       0.33913600      -0.66604718       0.13900793       0.41505398       0.09268300      -0.35687415
O      -22.00218464      35.58775079      -1.50254045      -0.16948146       0.79987172      -1.14609855       1.30764713      -1.30179064       1.22087604
O      -21.25198466      33.82094572      27.54097400      -0.51969748       0.51774787      -2.11887855       0.13347113       2.49579606      -1.51152825
O      -24.28280768      33.36588706      22.31015407       0.21172696      -0.84847890       1.43341449       1.52417447       1.26864988      -1.27555772
O      -25.80716874      32.00761036      22.76726819      -0.45472443      -0.40838901       1.44026699       0.16855139      -0.52139330       0.72433596
H      -26.30377242      30.86148004      24.10734351       0.05978406      -0.06460473       0.15449073      -0.26675730       0.14424043      -0.56043188
H      -26.60094118      30.52972987      25.85680091      -0.04413150       0.18221721       0.17743338       0.44342083       0.07036603      -0.76353807
H      -22.11408109      32.53515737      28.75210014      -0.28257996      -0.21553499       0.08273621       0.66466757       0.87713541      -0.61224924
H      -23.36730886      31.52680143      28.98508299       0.16426090      -0.09468907       0.05869044      -0.25757751       1.20901383      -0.04775958
H      -23.18190112      34.57172091      23.22350655       0.03216487      -0.44356479      -0.24316299      -0.55068768      -0.29379658      -1.11388754
H      -22.28743549      35.32266432      -3.42652206      -0.15677880      -0.00091082       0.36421789      -1.68200695      -1.10071427       0.05359482
C      -58.75260903      12.56500456       1.79065211       0.92769961       0.21874112       1.26033728      -1.08771998       0.55625396      -3.12180227
C      -57.93404794      12.25985501       2.85577631       0.21482694      -1.32132534      -0.45924613       0.82994884      -2.07159151       0.98922113
C      -58.80032250      13.95350198       1.29161446       0.75519171      -0.67861614       0.43955799       0.05922145      -1.65018664       1.46233942
N      -59.36597697      11.58060091       1.09889446      -1.01359549      -1.03200445      -1.07661710      -0.68423761       4.21824480      -1.08789226
C      -56.76478755      12.97428045       3.16725631       0.41928270      -0.53105714       0.40229224       0.69626938       0.73624029       2.38481807
N      -58.22690931      10.93063265       3.43033659      -1.24673946      -1.74530720      -0.58746214       2.37058245      -0.84492194       2.59755063
C      -56.62055719      14.23347173       2.42167522      -1.09707446      -0.99415538      -0.52536291      -0.99055427      -1.54291414       0.36244101
N      -55.97722608      12.65018797       4.29281727      -0.51151283      -0.95363196      -0.02674752      -1.54278955       3.13038281      -4.70003784
C      -57.68367197      14.79446450       1.63850776       2.15298855       0.31531341       1.72782979      -1.82585793       0.90948359      -0.31407704
N      -55.45830382      14.94030721       2.51765121       0.70438737       0.05801615      -0.50635436       4.75711307       1.01544478       0.75800632
N      -57.69140341      16.07821421       1.29364277       0.91020847       0.69789841       0.43618933       3.27756668       0.09706312       1.16866548
N      -60.00487061      14.41707833       0.68161020       0.24629121      -0.31171153      -0.79899647       0.78621118       1.09699400      -1.47161872
O      -59.33521773      10.47855909       3.36499317       0.33077619      -0.51768629       0.92245647      -0.94557401      -0.15641608      -0.58701937
O      -57.35562711      10.29269916       4.10820909       0.80403994       1.27141182      -0.64604099      -0.50684671       1.81363502      -1.33710150
O      -54.40238402      14.35155737       2.85196236       0.28785660       0.63405974       1.07484081      -1.74219491      -0.06090078       0.25686721
O      -55.32576977      16.16161345       2.26416281      -1.03562853       1.32592718       1.01805269      -1.34988632      -0.73682155       0.41258976
O      -60.93128828      13.63108302       0.43427700      -1.32005637       1.74957793       0.06848974       0.75331635       0.84107969       0.51126068
O      -60.02075872      15.62054848       0.31303284       0.09379979      -0.46920797      -1.75228899      -0.67678960      -1.75899026       0.57891920
H      -60.11285639      11.88083624       0.46815683       0.17628336       0.06948081      -0.11828300       0.49001186      -0.20062400       0.41925258
H      -59.33387072      10.66434043       1.35421451      -0.05747160       0.47830782       0.15788779      -0.05684748      -2.43685530       0.92052826
H      -55.27684338      13.37151109       4.45649323      -0.29305636       0.13796573      -0.19869438       0.01541395      -1.17321347       0.42164148