1296
Lattice="-44.56862855668917 -31.301218807957156 41.504283029638614 0.0 20.117899048799014 1.6972580691126684 0.0 0.0 -25.002362852970965" Properties=species:S:1:pos:R:3:momenta:R:3:forces:R:3 energy=-1487776.0094215677 free_energy=-1487776.0094215677 stress="0.003818823000587815 0.0008131840189010376 -0.0009730783805184942 0.0008131840189010376 0.00277246111373905 -0.0011116007193250495 -0.0009730783805184942 -0.0011116007193250495 0.002500629912712328" pbc="T T T"
C      -24.55528269     -30.56796797      23.91642988       0.52034932      -0.10847563       0.38721059      -3.38835494      -2.28177336       0.03737403
C      -25.02335570     -31.43537110      24.98726252       0.33380492       0.05494831      -0.82240701      -0.77056866       0.48804109      -2.43226325
C      -25.34303784     -30.64152371      22.69371279       0.90642322       0.05320474      -0.45164395       2.06207899       0.50539661       1.10043023
N      -23.51752060     -29.84901392      24.11033291      -1.28215170      -0.88635683      -1.20020979       1.36483352       2.83287163      -2.55630300
C      -26.05122779     -12.21797467      26.39960818       0.90470036       1.31640950       0.22436075      -3.27230474      -2.05692675      -1.54060665
N      -24.38308310     -31.51559035      26.15668440       0.20337715      -0.54483561      -0.45545544       2.75510285      -0.14887787       4.13881900
C      -26.98476529     -11.97049315      25.35374268      -1.56187574      -0.60879653      -0.24590854       0.07281699       0.67090938      -1.02441806
N      -26.19097324     -13.42116387      26.96451478      -0.87279357       0.66989025       0.02514446       0.58292373      -0.64594362       2.53533355
C      -26.53450210     -31.32279107      22.50586352       0.93102918       0.96299914      -0.87536020      -0.03680294      -1.67730299       0.52532034
N      -28.21708124     -12.69544701      25.28926779       0.30706090      -1.26653956       0.77876172      -0.22613571       1.28085431      -1.39004111
N      -27.11297082     -31.44589913      21.32231667       0.38066379      -1.28551272       1.60337685      -2.53814543      -1.56972378       1.96206700
N      -24.72390279     -29.89684221      21.56460304      -1.35012688      -1.61261061      -0.06884932      -1.16456074      -2.37467879       2.50885766
O      -24.79167064     -32.24040073      27.08622458       1.16855349      -0.83159722       0.86044816       0.05923571       0.47780653      -1.32099343
O      -23.35539967     -30.83009578      26.35898577       1.60599538       0.17213408       0.41589064      -0.33786250      -0.13456620      -0.23107893
O      -28.81300971     -12.73055521      -0.83238965      -0.31950820       1.10844908       0.09916139       0.31937404      -0.59844564       1.99890104
O      -28.71479187     -13.10979178      26.32222777      -0.12507279       0.12293839       0.43299227      -0.30838992      -0.54545231      -0.45255268
O      -25.02114659     -28.75011652      21.62179704       0.75242321       0.24110118       1.56414883       0.01252468       3.21842062      -1.18062341
O      -23.97840872     -30.46700026      20.81815597      -1.30201589      -0.20950234      -0.44464274       0.89144283       0.20557474      -0.68647704
H      -23.33171861     -29.12262136      23.43040670      -0.17310837       0.05043584       0.18957640       0.25530974      -0.14470014      -0.04416027
H      -22.94298744     -29.84054002      24.91971364      -0.22335642       0.10266180       0.46110552      -0.09597449      -0.56565226       1.03422420
H      -26.98152810     -14.12059544      26.84527624      -0.40939287       0.39587911       0.37253386       1.49806695       2.18290232       0.00671921
H      -25.75508466     -13.37054925      27.90563262       0.03792627      -0.54073918      -0.11955603      -0.45312793      -1.00241955      -0.59592761
H      -26.72320107     -31.07001447      20.55388688       0.19783698      -0.11803629       0.26984648       1.67368592       1.70048449      -2.73253670
H      -27.94855372     -32.07426873      -3.80145929      -0.08463975      -0.11044735       0.03945218       1.48705279       1.08773170       0.74162336
C      -50.35785123     -30.42500140       2.00600438      -0.51579956       1.26546545       1.12027939      -3.18601013      -2.63249884      -0.44326135
C      -49.50218083     -29.72360460       2.80637655      -0.95679772      -1.94023581      -0.28590366       1.50710107       1.48205282       0.25275595
C      -51.34054498     -31.24675050       2.74498197      -0.10172256      -1.71235283       0.37033821      -1.12027551       1.00150624      -1.44204670
N      -50.36509719     -30.40839006       0.63724717      -0.96134096      -0.12506132       1.13949732       1.45467540      -0.12920642      -0.67845349
C      -49.39752943     -29.73708816       4.25516232      -1.21471763       0.52357505       0.23746862      -1.64207941      -0.04646273      -0.77896979
N      -48.60845999     -28.83321323       2.07910122       0.14008878      -0.98216534      -0.04481421       0.48261351       1.25242224       6.33560962
C      -50.30846320     -30.60810706       4.90485571      -0.83304638      -1.01146043      -2.04742603      -0.61771865       0.24437532       0.32793494
N      -48.62978183     -28.86033494       4.88402497      -0.61886285       0.98175919       0.48719838      -3.13181953      -3.46319574       4.04321718
C      -51.34252751     -31.29592530       4.17460371      -0.16363168       0.22179701      -1.19877424       1.66754344       0.60173221      -0.55767114
N      -50.32111973     -30.70485219       6.34073997       0.89146193      -0.20723709       0.18656137       2.82944639      -1.30368846       2.71073829
N      -52.20007434     -32.05649671       4.76075924       1.69835078       0.97530725       1.64651378      -3.93719608      -2.26342077      -0.43009381
N      -52.62406028     -31.65954443       2.03071580       1.28804075       1.38443916       0.53115109       2.16227494       1.28935837      -1.46353203
O      -48.18018722     -29.14044105       1.05508209       0.93993117      -1.06717205      -0.08768421       1.57305333      -1.12890923      -5.46169812
O      -48.13227568     -27.87331295       2.73329383      -2.40549653      -1.56777701      -0.91916086      -0.68594208       0.16336512      -1.40769282
O      -51.26781393     -31.12091592       7.02786248      -2.17915203      -0.15390273      -0.43758488       0.99653914       0.93235353      -1.81687863
O      -49.16464477     -30.52819661       6.93210997       0.43987534       0.36351152      -1.46572174      -3.07178057       0.31186959      -1.75480781
O      -53.37400704     -32.49430871       2.52072662      -0.21246142      -0.18393702       0.84283436      -0.08198145       0.51217816      -0.53288429
O      -52.83189512     -31.13164915       0.90026347       0.73182040       2.24468179       0.79270231      -0.12186372      -1.32271097       2.28227428
H      -49.43927089     -30.33134285       0.17509208      -0.56114719      -0.45542086      -0.33198137      -1.31422857       0.38941861       0.85408011
H      -51.08465171     -30.81479344       0.02796639       0.36865332       0.24585042      -0.30427874       0.28311702       0.21972891       1.40343186
H      -48.48949644     -29.04382375       5.87986541      -0.00348815      -0.02895530       0.03014356      -0.10222639       0.03613429      -0.48414110
H      -47.99095561     -28.47404837       4.34797740       0.19210827       0.13818641       0.11561127       3.68356938       2.84827430      -2.52804541
H      -52.91737241     -32.47524850       4.06838021       0.27054469      -0.40136948      -0.10876660       1.56005009       0.58678140       1.81474753
H      -52.47011878     -32.10895176       5.74098960       0.05970129       0.73073427      -0.15620033       0.90967380       0.38798403      -0.36284451
C      -41.53658574     -40.85098875      -5.74600058      -1.33134645      -1.52135965      -1.34056432      -0.77645284       0.51502753       3.49972588
C      -42.14227033     -42.15633562      -5.38212494      -0.16746697      -0.17183928      -0.96727346       1.50424977       0.12311966      -0.30010863
C      -41.13167538     -40.07628150      -4.62353572       1.03854078       0.51434301      -2.26759017      -0.96232354      -1.13428159       4.26231436
N      -41.47849573     -40.24705009      -6.93970858       0.12417931       0.90294780       0.13424862       0.63057996      -1.27647803       0.54234138
C      -42.06794650     -22.55366467      -2.28219681       0.19514315       0.42038936      -0.69164735      -0.11388460      -3.16142178      -1.97039241
N      -42.14482418     -43.10416230      -6.53555146      -0.45368425      -2.20683291       1.34900817       0.55061720       0.23078663       0.90172608
C      -41.77995179     -21.71591864      -1.18238437       1.48015890       1.03468497       1.12653385      -0.90693381      -2.31268434      -1.13041532
N      -42.28201680     -23.91666568      -2.16051891       0.19928357       0.57579638       2.35863366       0.44140142       3.10028771      -3.03544270
C      -41.48009931     -40.52984974      -3.19172681       1.95717957       0.35255978       0.69542690       1.38458550       4.84618960      -0.51835479
N      -42.01398203     -22.31278988       0.12612670      -0.50567451       0.38932072       0.84151349      -1.31057405       2.42524797       2.56131687
N      -41.41599593     -39.59592032      -2.18019764       1.59391197      -0.32245681       0.85918827       0.12238019      -1.29098902      -2.66864460
N      -40.45389214     -38.74151156      -4.65641313       0.21534655      -0.27761416      -0.53956581      -2.54647067       2.67147393       0.02617081
O      -42.05959478     -42.65108049      -7.67854905      -1.31627391      -0.71774912       1.45973386      -0.37472352      -0.02561296       0.48155051
O      -42.12551409     -44.31657866      -6.33796858      -0.70237133       1.30336067       0.76694762      -0.29838680       0.45152024      -0.59295863
O      -42.19744828     -23.49470416     -24.70780860      -0.93581359       0.00019752      -1.40951149       0.58384100      -0.38689118      -0.56415931
O      -42.18209054     -21.53765072       1.11890005       1.71398020      -2.04925423       0.17760882       1.24421848      -0.59443325      -2.19424635
O      -40.96248556     -37.70064766      -4.08637255      -0.98400389      -1.84220251       0.02435915       0.70574993      -3.28971406      -0.43412934
O      -39.49051552     -38.57306883      -5.36072989       0.18685619      -0.84590466      -1.18986225       0.49391507      -1.67751060      -0.04018767
H      -40.64809458     -39.66650271      -6.87394857       0.07168690      -0.02995728      -0.14464857      -0.38822116      -0.07486792      -1.31172005
H      -41.61983676     -41.00272543      -7.61396899       0.08152169       0.29483722       0.22032589       0.44576011       0.99405051      -0.92346578
H      -42.26632492     -24.43587207      -1.35277296      -0.03501672       0.25080754       0.25101740       0.14499493      -0.35954034       1.92311366
H      -42.15866283     -24.36228184      -3.07947435      -0.05232239       0.18076151      -0.19190117      -0.52757921      -0.27014374       0.71605873
H      -41.47996342     -38.60689673      -2.41636601       0.37130698       0.19501094       0.38564210       0.23289397      -0.55654590       0.34658081
H      -41.47889150     -40.02124844     -26.29164437      -0.33831155      -0.01310988      -0.44211496      -0.40181388       0.34223923       1.11365161
C      -29.32302098     -19.42525928      39.37615462      -0.08899399      -0.22177016      -0.20616243       0.33428985      -3.48147560      -1.10502530
C      -28.59678559     -19.68270007      38.10464950      -1.93491070       0.76549076       1.16723519      -1.55235049       0.26853590       3.10735135
C      -29.40169714     -18.12222256      39.90614672      -0.27505722       0.49998418       0.02151868       2.11974939       0.00264310      -1.07258292
N      -29.87736979     -20.53240160      39.97099940       0.10080729      -0.77742640      -0.25401805       1.39852455       1.11345359       0.71243268
C      -27.95998543     -18.57543256      37.61326534       0.55973767       0.41058886       0.13724438       1.74384415       0.68183224      -2.09902818
N      -28.63184407     -20.98116043      37.41970267       0.12407846       0.37072967      -0.46109327      -1.81409921      -0.89182662       2.85533780
C      -27.82836564     -17.30132831      38.26944914      -1.07385433      -0.73312227       0.57621571       0.57726215      -0.48321157      -1.46347717
N      -27.25611285     -18.76344991      36.49679888      -1.31392693       0.20210170       1.09060224       0.28279856      -0.00636314      -1.93695463
C      -28.39488716     -17.09678488      39.49787383       0.59774767       0.59968017      -0.52108322      -3.03758735       0.07800811       2.26199124
N      -27.19487291     -16.18544767      37.59380708      -0.96903025       1.17614095       0.78892136       1.69403737       2.37236436       0.80715739
N      -28.29874087     -15.99162143      40.23543888       0.55891156       1.64885790      -1.67560529       0.39025172       2.36532363      -0.67804877
N      -30.45656693     -17.85859930      40.77263195       0.55736543       0.18062870       0.98017372      -1.18536474      -1.65471813      -0.49290691
O      -28.63824572     -21.06011137      36.23605897      -0.47728971       0.47586161      -1.49589629       0.83046595       0.63294984      -1.89317606
O      -28.84701409     -22.01868816      38.10075691      -0.50656016      -0.18496638      -1.39044780       0.86963362       1.34509692       0.03722522
O      -26.54290119     -15.36175333      38.30608791       0.24415737       1.26870706      -1.58129738      -1.28872442      -1.67156531      -0.52621500
O      -27.28645690     -15.94915294      36.39510227       0.43594545       1.46412753      -0.44354168      -0.50211851      -1.39695734       0.26456912
O      -30.38932161     -16.91077329      41.53201707      -0.10167240      -0.35896811      -1.15424753      -0.90664249       0.01224167       0.40672928
O      -31.43834360     -18.66885556      40.66031627       1.04597335       1.67722789      -0.12906502       1.21113252       2.55715797       1.19175851
H      -30.19578822     -20.36277547      40.95135081       0.09378758       0.10033630       0.01949223       0.24703862      -0.72140483      -1.67546064
H      -29.42491790     -21.44174694      39.70895989      -0.54765790       0.00114488       0.24674458      -0.97559556       1.35266459       0.37864077
H      -26.79018593     -18.00898423      35.99268867       0.14820459       0.16876579       0.04245242      -0.64216648      -0.35707964       0.56098666
H      -27.53486871     -19.55614063      35.89309957      -0.31169352       0.05837833       0.26416389       0.48615164       0.79554168       0.49309753
H      -28.90571747     -15.84461800      41.07655252      -0.02226895       0.43552777       0.07916423       0.75465679      -0.58228173      -1.36644199
H      -27.92624711     -15.09824232      39.74720588       0.26857766      -0.51366161      -0.33957308      -0.47355341      -2.42151022       1.42137043
C      -11.57476915     -16.28154919       2.36058924       0.67363424      -0.55281216       1.12531368      -2.84160183       0.75928765      -3.71306128
C      -10.89148319     -16.75819319       3.42073647      -1.63115277       0.81793474      -0.64582140       1.09883557      -1.85010884       0.97391180
C      -12.17158870     -14.96095705       2.47198944      -0.02517843       0.84512577       0.59854062       2.14044834      -1.29018492      -0.86255421
N      -11.78407242     -17.11603449       1.22069265       0.61210324       0.60006517       0.11163630       1.83278318      -0.70030804       0.92118061
C      -10.62703166       4.05851844       6.29523769       1.01040294       1.45519417       1.40300328      -0.33273823       0.77531397       1.08682344
N      -10.62023858     -18.19609789       3.45904608       1.06447950       1.70745817       0.15461910       0.45200660      -1.96015105       0.22715796
C      -11.08417124       5.38576332       6.33493303       0.32493225      -0.09594089       0.33301520      -1.57210281       1.58397772       0.26091241
N      -10.03486308       3.50986884       7.36446744       0.25951308       1.30056524       2.56930477       0.26941583      -0.58697424      -1.02873136
C      -11.85169671     -14.14196519       3.58907202      -1.10117933       0.31549289       0.58989211      -0.11025317       0.28772343      -2.24318700
N      -10.99367147       6.22981678       7.56261494      -0.44281190      -0.25729366      -1.54340529       0.35258697      -2.08781032      -4.79282450
N      -12.19934925     -12.82547882       3.43335305       0.96828360       0.79119538       0.58549940       0.15202028       0.28175020       2.16869271
N      -12.76509369     -14.32335975       1.22243415       0.71954510      -1.04841213      -1.63695753      -3.49972961       0.10007859       0.25890963
O      -10.08790512     -18.82948698       2.52676547       1.04638045      -0.67313905      -0.48527717      -0.68150576       1.81642721       0.75777931
O      -10.97116794     -18.78625379       4.48232496      -0.52378637       0.46100488      -0.37560673       0.20877622       0.51383038      -0.60133104
O      -11.65878629       7.23377845     -17.46683751      -0.55325449       0.37193983       0.66449824      -0.19457385       1.01210185       2.07701341
O      -10.15938546       5.86587797       8.31989627       1.59829859       0.49130299       1.15933187       0.98643513       0.88989365       2.94140485
O      -12.16699950     -13.88394095       0.24339127      -0.00483483       0.72182661       0.28203921      -0.15712759      -1.15331951       2.13817280
O      -14.05365626     -14.25549839       1.31732361       0.25616534      -0.54048722       0.19777906       3.76106474      -0.09970139      -0.75448106
H      -12.68574860     -17.14721295       0.73562433      -0.14843841      -0.39468776      -0.07913482       0.88488038       0.23931135       0.42295277
H      -11.06743460     -17.94882939       1.11021437      -0.27611289      -0.43009991       0.37519705      -2.43830544       2.38308314       0.36326100
H       -9.51927491       4.14360297       7.94272645      -0.03957188       0.13747932       0.08503809      -0.23590374      -0.44470729       0.63547777
H      -10.07595163       2.50246972       7.45193366      -0.09515023      -0.11343812      -0.05018595       0.40362100       0.60004816       0.25827361
H      -12.38174256     -12.50400517       2.51231713      -0.36157538       0.03681751       0.03428017      -0.12237581       0.32291471      -0.19527635
H      -12.10395133     -12.16806671     -20.76264080       0.29522069      -0.10799153       0.29256733      -0.07530963      -1.13404210      -1.58123070
C        7.89045618       5.16957525     -13.52620763      -0.16706252      -0.21732888       0.50356340      -1.40475460       0.50057074      -2.14176177
C        7.83151397       6.05660550     -12.39521780      -0.55335795       1.82780923      -0.11791620       0.29506795      -1.32897388       0.19488225
C        7.64802394       3.82949440     -13.24689888       0.05541740       0.40833807      -0.18238700      -1.47230370      -2.94917518       0.54745778
N        7.95077219       5.62568422     -14.83438953      -1.67704248       1.39790570       0.07265404      -0.11195789      -4.21607463       1.33655336
C        7.59273393       5.56528545     -11.03489129      -1.15106764      -0.20443425      -1.05991501       1.70569838      -1.18939613      -0.77162371
N        8.12556533       7.40155348     -12.69066409      -0.89499283       0.18483985      -0.66337145      -0.40154383       1.70139934       5.59294378
C        7.83911460       4.10151822     -10.86940922       0.60613758       0.02431130      -0.16396747      -0.72918974       2.55348467       1.50900311
N        7.34792710       6.35133845      -9.98978036       0.25058329       0.50335549      -2.05646725       0.88469590       2.06611057      -1.13174397
C        7.80659615       3.25954505     -11.94766656      -0.41611585       0.42854662      -0.74608140       0.67422818      -1.64398359      -0.46593129
N        7.88943712       3.51932707      -9.54253884       0.67219864       0.01115860      -0.17427820       0.51085809      -0.29941824       0.00014473
N        8.02551848       1.90204285     -11.85435679       0.22141918       2.11699350      -1.94499885       0.56493939       0.54760221       2.10930749
N        6.96517038       2.82453951     -14.20174220       0.39698831       0.61647505       0.02961911       1.61857604       1.95738284      -2.12172876
O        8.47641208       8.12464774     -11.72559303      -0.56978613      -0.63616452       0.50586272       0.29426770      -1.02091314      -0.25037683
O        7.89029251       7.93579688     -13.71682014       0.29043163       0.74695373      -0.07758510      -0.35768173       0.60640701      -4.21036833
O        7.49216087       4.16108493      -8.57854656       1.17556570       0.15582744       0.51540040       0.13632692      -0.13346558      -0.19342267
O        8.37329765       2.39027364      -9.42106069       1.60284297      -1.03281062       1.81577647      -0.35086670       0.81389269       0.39068765
O        6.07133625       2.06193188     -13.82321819       0.01011968       0.64871185      -0.75181168       1.77634290       1.33245144      -0.78361736
O        7.39236949       2.95720472     -15.39615808      -0.56620064      -0.71066550       0.97235426      -1.71157600      -0.98415220       2.54513705
H        7.92800410       4.86081005     -15.57154700       0.15497540       0.12407709       0.25715634       0.16457822       1.69625804       1.38108767
H        8.07154294       6.58072537     -14.95972398      -0.03152613       0.11981711       0.40576692       0.15826939       1.53390794      -0.69120050
H        7.65874877       5.98362353      -9.09376295       0.32558153      -0.32794750      -0.29015938      -0.77087290       0.31922293      -0.22870378
H        7.42614589       7.39632821     -10.22489251       0.07539969      -0.00370662      -0.59668555      -0.07048445      -2.24214086       0.81498074
H        7.48062659       1.42140799     -12.46838997       0.17937278      -0.31141282       0.04122168      -1.23858441      -1.64677787      -2.35544600
H        8.10911488       1.33462937     -10.97408768       0.02176330      -0.14306574      -0.06938584      -0.02333360       2.00080116      -1.04368713
C      -27.30965780      37.85425977      31.12438652       0.97940464      -0.72483654       0.59563983       0.64411846      -0.53003781      -1.55535244
C      -27.67885646      37.16420688      32.26848503      -0.16677512      -1.70360903       0.86813820       0.64072812      -0.22814081       1.95952925
C      -26.09595693      37.45880207      30.56605258      -0.97070376      -0.60379646       0.57001245       4.02332652      -1.92807217       0.92263666
N      -28.06425820      38.76680548      30.58289956      -0.10379542      -1.15884044      -0.81054123      -0.54769034       2.66283003      -3.40816706
C      -26.67251279      36.75028039      33.27874204      -0.57952138      -0.82141847      -0.84406670      -1.29187305       0.23529234      -0.97849848
N      -29.07410928      37.16068405      32.53740919      -0.68922037       0.54277072      -0.78824283       0.76856372      -0.49405801      -1.26426035
C      -25.36915127      36.33591042      32.72693508       0.60343138      -0.39049476       1.73072375      -2.88457394       0.15779326       1.97582292
N      -27.02816671      36.79125406      34.57632288      -0.55825670      -1.14149316      -2.09258333       2.14907097      -0.45012920      -0.90893531
C      -25.24542161      36.56821788      31.32721269       1.33605092       1.45885641       0.18534925       2.40186119      -0.53705099      -0.34583482
N      -24.51781196      35.48169949      33.62588724      -0.21882339      -1.04032818      -0.76230939       2.52165091       1.24637103      -6.40264078
N      -24.15746158      35.97955274      30.75228885       0.32791212       0.18437989      -0.29935522      -2.86911910       1.13093274      -0.93398734
N      -25.51111995      37.92243380      29.34809435       0.58870163      -0.34549306      -0.93055547      -1.65285182       0.98547420      -0.13996762
O      -29.85435544      37.17650342      31.59429252      -0.84635350      -0.98343114       1.02427439      -0.40673481       0.32353234      -0.58806904
O      -29.44215519      37.00306629      33.65733948      -1.16661536       1.27849455      -0.67405486      -1.18700570      -0.35556990       3.15802491
O      -23.47481852      34.98209411       8.04510184       0.78747747       0.58150022      -1.36039213      -2.19626084       0.57109029       2.03997659
O      -24.74454668      35.39737006      34.76775383       2.13653464      -1.73565398       1.03647671      -0.62306507      -0.48698249       2.97265667
O      -26.33948817      38.52649576      28.65960479       0.63939989       0.89763024      -0.91507726       0.55705841       0.45374378      -0.89804630
O      -24.33677488      37.78875625      28.97710865      -1.06057089      -0.77615014      -1.14859941      -1.08539420       0.02312341       0.33670033
H      -27.80175002      39.19819123      29.57457029       0.16241364       0.38100267       0.29004579      -0.72699072      -1.76583521       3.52129662
H      -28.95749818      38.93360201      31.02971679      -0.26497884       0.49628237       0.35183115       0.26318886       0.08840006      -0.65398941
H      -26.22491783      36.70055470      35.19057174      -0.08448582      -0.10887770       0.42768282      -0.81664273      -0.38178049       0.24965213
H      -27.98216880      36.81106921      34.88213179       0.08751112       0.26268630      -0.00223884      -0.07458456       0.29900474      -0.11581621
H      -23.78302178      36.38431761      29.93877085       0.07965517      -0.13084920       0.64719635      -0.00980606       0.36954555      -1.06991780
H      -23.49287941      35.73714561       6.38086619      -0.07740670      -0.22796747      -0.01589330       2.15741098      -1.50368128       2.14620839
C      -65.09098047     -28.96688962      30.94345582      -0.11468010       1.01968715      -1.49706155       0.35332191      -0.24352879      -0.93940643
C      -64.88907662     -28.74813100      32.31796032       1.34560917       0.34990141      -0.34680499      -0.53358395       1.18106347       0.47500412
C      -65.07041474     -27.84698856      29.95367533       1.21741474       0.94386602       0.17118580       1.03289943       1.24761864       2.57250307
N      -65.22542502     -30.24222970      30.53170124      -1.19243496      -0.05842367      -0.41541804      -0.20303593      -1.54695498      -0.60072988
C      -64.98647414     -27.40236807      32.93559733       1.11516244      -0.61269523       0.07873897       0.18573488      -1.90996315      -0.38366947
N      -64.93786462     -29.98184780      33.24729699       0.09297629      -1.09920739       0.35299257      -2.00032669       4.22275948      -1.94543805
C      -64.99857933     -26.35344750      32.02215826       0.34227224      -0.17339655       0.77457955       0.96689824      -0.10379319      -0.70668136
N      -65.01268625     -27.36126344      34.28699756      -0.91182480      -0.06199747      -0.90122026      -0.71464073      -0.05586253      -0.58513021
C      -64.68486126     -26.58192465      30.58592836      -0.81846941      -0.27355322      -0.64696396      -1.35233897      -0.91623225      -0.22101611
N      -65.39747311     -25.05974532      32.52246332      -0.00403324       0.83052266      -0.77273640      -1.46236538      -2.63815061       0.34766924
N      -64.11755160     -25.60705561      29.90441486       1.47478111       0.59978370      -1.44741026      -0.23175385       0.08258746       0.45054564
N      -64.75133210     -28.08962491      28.54863306       0.89727915      -0.88011016       1.16281070       2.10066523       2.76482612       3.38650088
O      -65.90434231     -30.04509500      33.97524706      -0.01658616      -2.57931662      -0.71368246      -0.29310313      -0.57505569       0.82954982
O      -64.08873113     -30.76659869      33.10268078      -0.55193644       0.82719218       2.79673523       2.41997051      -2.78549820       0.18480473
O      -65.74093932     -24.22350062      31.75928582      -1.51102655       0.50861933      -0.33870686       0.30331086       2.82597361      -3.01796313
O      -65.71872992     -24.98193787      33.68892939       1.00441694      -0.25892030      -0.98321185       0.85465879       0.03926789       1.96866135
O      -64.20729207     -27.21607349      27.87509726       0.15300108      -1.17330293      -2.28813546      -0.81048867       0.53520650      -0.33657677
O      -64.77107457     -29.21112312      28.22367906      -0.82651588      -0.73354941      -0.26282663      -1.01587491      -4.12324139      -2.27268550
H      -65.22868411     -30.57762724      29.55566234      -0.61326777       0.30208098      -0.36564204      -0.03779815       1.16451698       1.13028391
H      -65.19227245     -30.99105835      31.21121855      -0.35713660      -0.19409991      -0.24557244       0.00631101       0.49022738      -0.32650996
H      -65.35268967     -26.54725967      34.80924228       0.04353474       0.14134410      -0.17907734       0.16465424      -0.46862627      -0.90809671