1296
Lattice="-63.78688919928516 -21.46483074732788 22.43692308008036 0.0 16.78711078171054 4.910855318443476 0.0 0.0 -21.800937585197577" Properties=species:S:1:pos:R:3:momenta:R:3:forces:R:3 energy=-1487774.4948629346 free_energy=-1487774.4948629346 stress="0.0023282664757215297 0.0005953848444396489 0.00044807721338532196 0.0005953848444396489 0.005981189410956393 0.0010319811962343404 0.00044807721338532196 0.0010319811962343404 0.005456901761977615" pbc="T T T"
C      -41.96713580     -21.38729115       5.77005910       1.03896817      -0.87472165      -0.40119272       0.71985526      -0.42229928       1.29751084
C      -41.04390876     -20.36426411       5.42427124      -0.71160653       0.80519742      -0.34781411       1.34956594       1.51312471      -0.62975679
C      -42.85389998     -21.74521227       4.77422677      -0.25228036      -0.23153515       0.58964453      -0.74867438      -0.13246072      -1.35565062
N      -41.96055993     -21.98745532       6.98366061      -1.20271323      -0.46775579      -1.20217431       1.50400053       3.06986268      -1.25719970
C      -40.73613568      -3.25782295       8.96069435       1.30730446      -0.29052364      -0.66649251      -1.01490444      -0.27745216       1.27013146
N      -40.21254850     -19.73215391       6.41248375      -0.21031148       0.88968503      -0.51009511       0.78897909      -2.49451121       1.31645161
C      -41.56653359      -3.85314407       7.95673643      -0.56042729       1.18382389      -1.21024469       0.12947658       1.75288876       0.93278198
N      -39.78157642      -2.42718383       8.62625298      -1.50608936       0.10734381      -0.10857762       0.33005029       0.31093784      -0.14373412
C      -42.80515546     -21.26253419       3.41451398      -0.47204230       0.68904317       0.66504394       1.54593716      -1.36262636       0.04635900
N      -41.27274585      -3.57458974       6.59960934       0.47791911      -0.79896041       1.07237160      -0.80558778      -0.47541053      -2.15984795
N      -43.70444103     -21.69374016       2.56979261      -0.92620516      -1.00057724      -0.15636398      -2.60088752      -1.11389947      -0.64191985
N      -43.76536371     -22.77907411       5.07289361       1.93183379       0.69640885       0.67683187      -2.24451257      -1.24517264       1.38291779
O      -40.49019692     -19.98089372       7.59340584      -0.05905464       1.71378922       0.06208496      -0.41397487       0.69896000      -0.04573277
O      -39.13418674     -19.19407084       6.17008021      -1.25631390       0.68782565       0.03005075      -0.53981932       0.76537907      -0.70075843
O      -40.53050693      -2.70467654     -15.67517213       0.43571236       0.19653723       0.66800389       0.15370403       0.05560094       1.65636354
O      -41.85841439      -4.31504532       5.82089185      -0.48350517      -0.36467401      -0.32387031      -0.28142291      -0.43141801      -0.56521391
O      -44.96352938     -22.69076140       4.67456672       0.28936266      -0.04126639      -0.02368438       2.53184566      -0.54447412       0.60841993
O      -43.36788106     -23.70486179       5.82133795      -1.18375236       0.63677820       0.41485614      -1.15191832       0.95378145      -1.63322592
H      -42.37580126     -22.84481132       7.13309156      -0.19551748       0.05438542      -0.36929505      -0.92113948      -1.65260137       0.31079099
H      -41.29464735     -21.54358413       7.59377377       0.08969359      -0.14866132      -0.05093744      -0.25921799      -0.31092654       0.43370447
H      -39.80704922      -2.14798592       7.67276151      -0.10294201       0.04345944       0.44351375       0.31178440       0.25507831      -0.92143126
H      -39.14693187      -1.99987255       9.28330787      -0.07289217       0.25151504      -0.11545563      -0.29417688      -0.30661447       0.22209243
H      -44.45558333     -22.32724444       2.95483374       0.11517535      -0.20872737       0.10553282       0.98476210       1.40254296      -0.51508851
H      -43.81409831     -21.46984169     -20.22731795       0.17254331      -0.09307544       0.34676584       0.90329532       0.10754574       1.04329864
C      -66.45224808     -14.98552392      -5.29347434       0.15845030       0.35677111      -0.96166065      -0.73556970       1.52951863      -1.63785523
C      -66.28776983     -15.08880125      -3.88827808       0.48092699      -0.27104295      -1.65106352       0.60865320       1.05078509      -1.73889666
C      -65.50784237     -14.14198506      -6.10121002      -0.05142426       0.07027076       0.84813384      -0.37923130       0.07777416       1.74757109
N      -67.53571101     -15.45840192      -5.95410268      -0.18427397       0.16009920      -0.74858354       1.60766332      -0.15575799       1.13589461
C      -65.56174397     -14.10280189      -3.17065462      -1.67353249       0.43993914       0.32811699       0.80765958       1.96762852       0.36208141
N      -66.90856611     -16.15945481      -3.22916362       1.07794488       0.09512148      -0.29379404       1.66971456      -0.47879804       3.00633750
C      -65.11261272     -12.93936786      -4.00137626       0.30518385      -0.78583610      -0.54973498      -0.03145681      -0.15410653      -0.14440729
N      -65.38540200     -14.11963942      -1.81570545       1.18725719      -1.03125353      -0.42298025      -0.39126843      -0.17493364      -0.45052178
C      -64.90336373     -13.00886913      -5.46006674       0.26585305       0.98179299      -0.44161477       1.13515214      -1.21113010       0.06741923
N      -64.63427257     -11.74391098      -3.40034895       0.99688795      -1.28143128       0.17587698       1.69425190      -1.09019360       2.29906485
N      -63.98756683     -12.15488269      -6.04696281       1.14016570       0.40831017       0.32450947      -2.27549206      -1.64481263       1.49418260
N      -65.17164429     -14.43300344      -7.46426320      -0.54919089      -1.54079054       0.39032883      -2.39104468      -0.28857677       2.41896969
O      -66.18132998     -16.71611215      -2.39694729      -0.14924494       1.26138410       0.49792065       0.15158609      -0.12859304      -0.00225194
O      -68.05654527     -16.46093763      -3.33825251      -0.72947863       0.56113798       0.66669527      -1.88110944      -0.28394034      -1.55138102
O      -64.32258817     -11.73622097      -2.17395126       0.91237001       0.47400502       0.07703004      -1.16544751       0.09584776      -1.28405671
O      -64.34883007     -10.77658556      -4.09996895       0.70807989       2.12311910       0.64038883      -0.64797669       0.82944336       0.81447266
O      -65.85848592     -15.26011530      -8.05841762      -2.05997365      -0.32702055       0.21036560       0.38520887      -0.05503513      -0.51285700
O      -64.25233076     -13.81608556      -7.91390316      -0.28243401       0.90591998      -0.23151905       1.55737552       0.42421592      -2.03028664
H      -68.19919856     -16.09015717      -5.53653206      -0.23983399       0.29646890       0.04982110       0.15163835       0.10682054       0.00150052
H      -67.42390419     -15.32135306      -6.93435083       0.15832752       0.24403362       0.15944674      -0.49159613      -0.48329880      -0.68504544
H      -65.06704377     -13.31130374      -1.24403240      -0.07022551       0.29594450       0.30142393      -0.22264970      -0.65371084      -1.35295698
H      -65.59249052     -14.97537678      -1.29535893       0.00810953       0.47856316       0.15431848      -0.01905728       0.46818263      -0.70558532
H      -63.88134811     -12.14188013      -7.03755579       0.34913987      -0.09254048       0.03505592      -0.06493652      -0.22492690      -0.00721987
H      -63.84593579     -11.39616261      -5.39267784      -0.12905519       0.33950463       0.10884744       0.64269478       0.64797258      -1.04935405
C      -60.68346882     -22.94719829     -21.73571041       1.87078489       1.40545802      -0.39945995      -0.69770947       1.16228303      -0.01167634
C      -59.67549447     -22.94591896     -20.77399290      -2.22887769      -0.36621713      -1.49881510       1.07987282      -4.05305762       1.16818436
C      -60.97189724     -24.11683829     -22.48731131      -1.59717460      -0.71615057      -0.50263964       0.25620116       0.24841613      -0.33775059
N      -61.46893350     -21.79989188     -21.79808063       2.04562468      -0.33924564       0.63779428      -0.37472695      -1.45994041      -2.08267028
C      -59.07698244      -7.41954515     -15.32743722      -0.17658400      -0.57706027      -1.07938441      -3.53615781       0.70678620      -4.37585930
N      -59.19723844     -21.72955377     -20.28448969      -0.16756254       0.50995024      -0.63598502       0.74909703       3.01726631       1.51388269
C      -59.43810533      -8.60411282     -16.12200194       0.19007211       0.34709178      -0.75054527      -1.25236949      -1.31356662      -1.67320717
N      -58.38066815      -7.53571104     -14.27939263       0.76053341      -0.68676594       1.28933049       1.65701077      -1.79048032       2.71257443
C      -60.28086398     -25.37105641     -22.22292767      -0.83008899      -1.15037491      -0.24175530      -0.98501437       0.94468163      -1.65284705
N      -58.99091128      -9.94243197     -15.84513103       0.14625342      -0.96342403      -0.00916611       3.16200605      -1.25718490       2.49178096
N      -60.36159828     -26.44857719     -23.13500152      -0.33400179      -0.75635166       0.02831872      -0.96790597       3.27922800       0.82876040
N      -61.81381642     -23.87758960     -23.74771841       2.33091216       0.63850867       0.86190942       0.79964055      -6.53272533       1.10771120
O      -59.07177408     -21.44389799     -19.07970689      -0.36338254       0.44943014       0.13244384      -0.26180132      -1.81252269      -0.63403936
O      -58.92024980     -20.89214201     -21.12421904      -0.87993544       1.27312048       0.52381844       0.00566432      -0.11936954      -0.58727074
O      -59.33211943     -11.00305106     -38.18837059      -0.06785702      -0.47998031      -0.02742283      -0.44628194       1.82516090       0.48619090
O      -58.06887376     -10.05588350     -14.95585189       0.85665901      -0.46961722       0.07356750      -1.49747948       0.79819376      -0.98710202
O      -61.77221345     -22.91791823     -24.39727512       0.25948448      -0.93279326      -0.47627161       0.30292805       4.60612296      -0.82948721
O      -62.36200632     -24.90439183     -24.20598310       0.23437957      -1.31656333      -0.53424085      -0.04342518       0.37695377       1.06369202
H      -61.92421206     -21.64721228     -22.72381320       0.27448410       0.30571884       0.19300824       0.66695344      -0.01317073       1.34657981
H      -61.10432185     -20.96960078     -21.38705838       0.21267270       0.21233565       0.33713749       0.14945522       0.32425782      -0.04572891
H      -58.16035534      -8.46114247     -13.91719869       0.09715548       0.12323087       0.17823536       0.05413848      -0.13857569      -0.83338918
H      -57.90901163      -6.87643870     -13.73921304      -0.04137350      -0.40387146      -0.02378738       0.07368366       2.00709087       0.44395780
H      -61.12180017     -26.38221751     -23.82492370       0.40628631      -0.21321772       0.21717455       0.62456215       0.25348495       0.70728143
H      -60.25056637     -27.30549035     -44.46689235       0.04841462       0.48254735      -0.46724167       0.29474787      -1.29982410       0.09977456
C      -44.04213218     -18.08875114      11.94006307       0.95445872       0.09828542       1.30204767      -2.62433097      -1.46365003       1.53132481
C      -45.37062869     -18.65790416      11.78213206       0.05746064       0.24715516       0.03820027       0.35215109      -0.08509305      -2.20592996
C      -43.43353078     -18.25945837      13.21206860      -0.14551139       0.51911740       0.50188045      -1.21945613      -2.47312593       0.25142841
N      -43.50071472     -17.46634561      10.95454501      -1.36603114      -1.88795077      -0.38111803       0.04300346       0.32545842      -0.94129218
C      -46.00259673     -19.54697349      12.60569012      -0.85985868      -1.12975028       1.74179882      -0.59783761      -1.01818578       3.27061375
N      -45.86926394     -18.77284938      10.36031765       0.16465734       0.49668154       0.30391737       1.56603613       0.49183085       0.04583965
C      -45.24631046     -19.83258142      13.90245897       0.43845135      -1.59552032      -1.01928364      -0.64919821      -0.90723080      -0.31301276
N      -47.25185382     -20.05300338      12.31450381      -0.03091238      -0.84545165       0.34031678       3.41733174      -1.50374019       3.67585146
C      -43.99419459     -19.32496725      14.16881741      -0.25750185      -0.78958063      -1.06595796       3.01632307       2.97110312      -0.94314936
N      -45.63823742     -20.82876940      14.90379864      -0.65941886       0.32326519      -0.04080045      -2.21539542      -0.70671289      -2.33353476
N      -43.17200631     -19.51434394      15.20478716       0.34208388       1.28844890      -1.06021053       0.05433623      -0.63197860       1.39305728
N      -42.16672554     -17.72387999      13.40995465      -1.08195703       0.93536820       0.77720464       1.12537382       2.70566728       1.44529468
O      -45.03217618     -18.96541445       9.50057464      -1.07922015      -0.41439312       0.91406717       0.17420160      -0.04589874      -0.14307212
O      -47.04562284     -18.71944180      10.10070706       0.85094884      -0.00910760      -1.32028776      -1.16364364       0.27868366       0.25342205
O      -44.88930702     -21.34779183      15.69828104      -0.36134838       0.73720175      -0.35905188       0.80416331       0.42887566       0.56214668
O      -46.79372656     -21.23721811      14.77462467       1.84297213       1.32100919      -1.51770818      -0.17702666       0.12942328       0.11200432
O      -41.40920924     -18.04203561      14.33509873      -1.35860160       1.49015201      -0.41382966       0.11442920      -0.79082726      -0.10456552
O      -41.83805139     -16.70162943      12.79661632      -1.09467805       1.06554856       1.28610867      -0.29968024      -0.10764987      -1.36698247
H      -42.71082811     -16.99838882      11.17561503      -0.04732332       0.25427968      -0.28300306       3.19016853       1.71543761       0.92754747
H      -43.84909008     -17.13023500      10.10680707       0.37390291      -0.01154914      -0.10460082      -1.54742050      -0.45598561      -1.21523216
H      -47.46293094     -20.97500780      12.70384051       0.11305955      -0.26218942       0.23435714      -0.13855667       1.02515025      -0.08636594
H      -47.66128800     -19.69203564      11.53253336       0.09327045      -0.06982363       0.09235356      -1.49942674       0.66553625      -2.36366017
H      -42.31746556     -18.90304204      15.26268941      -0.10303183       0.40820963      -0.37516842      -1.25648882      -1.19926849      -0.22720561
H      -43.29426740     -20.22208907      15.94980715      -0.35268859      -0.07971243      -0.08940256      -0.56668339       0.83134546      -1.33489909
C      -21.54525151      -5.78887331      12.75217048      -0.88907025       1.07345469       0.66410807       2.26457618      -0.47295500      -2.95583729
C      -21.86761922      -7.14577055      12.43301051      -1.31304694      -0.12521311      -0.08787417      -0.58639694       2.13120590       2.92255401
C      -22.16384504      -5.14981743      13.81834773       1.52694274      -1.02699045       0.74007671       0.03285973       1.37503225       1.33822023
N      -20.62456586      -5.18986495      11.93709033      -1.68580219      -0.75297744       0.88095675      -0.49769400       1.27022906      -0.65269584
C      -22.70786200       8.95982815      18.28226540      -1.78819571       0.02786411      -0.37903834       1.56350554      -3.73237300      -3.13203445
N      -21.53521432      -7.71716806      11.20315102       0.35939441      -0.38918068       0.95002076      -3.35670470      -2.15842196      -1.53721106
C      -23.09972113       9.51062665      19.44798364      -0.20668661      -0.97514804      -1.10349663      -1.16725204       1.43506810       1.33798861
N      -22.94176732       7.62963774      18.08107845       0.09400547       0.82323287      -0.81562094      -0.66824908       1.60789687       2.02503656
C      -22.93474693      -5.88610823      14.72178052       0.80067500       1.00801127       0.02864093      -0.30924663      -0.44012670       2.17382513
N      -23.92424904       8.71301575      20.36445957      -1.00818240       0.46412365      -0.28083272       2.01211381       0.59808965      -0.54618607
N      -23.30412197      -5.28843177      15.90890810       0.06067801       0.20375024       1.63638267      -1.10803011       0.44379584      -0.93838459
N      -21.89309355      -3.72373234      14.12503859      -0.00865719      -1.38414533       0.02388354      -0.43031710       1.77834020      -1.15582055
O      -22.47101853      -8.39720105      10.71555377       0.74616983      -1.80168401       0.92482735       0.41397935      -0.00187192       0.36576350
O      -20.53211898      -7.61469774      10.57227319      -0.73036319      -1.01841746      -0.61346893       2.30020919       1.26144340       0.08073041
O      -23.79769843       7.49440065      -1.40220367      -0.52376660       0.72179665      -0.15344397      -0.39113835      -0.02972696       0.42385402
O      -24.62067401       9.32370252      21.11507926      -1.23117458      -1.42182584       0.06330194      -1.62316566       0.42055092       1.50989794
O      -20.98198176      -3.13592687      13.52412215       0.21308392      -0.81873385      -0.66147756      -0.59783217      -1.46019193       0.68149337
O      -22.66611859      -3.02043326      14.82888792       0.27537705      -0.34448726       0.93248847       0.79300585      -1.56041090      -0.54853350
H      -20.54044847      -4.13866751      11.93960944      -0.01226747       0.00118281      -0.03831233      -0.09200748      -1.90038493       0.23895200
H      -20.37575186      -5.68628221      11.06281554       0.10545971       0.11049126      -0.10893632      -0.10396315       0.62019401       1.16175004
H      -23.63519355       7.22358818      18.69412353       0.00754595      -0.29337141      -0.51169468       0.57209132      -0.27567984      -0.31640870
H      -22.92580355       7.30874635      17.18682981      -0.34464637       0.09893672       0.20773875       0.12678088      -0.77455129      -2.69914955
H      -23.39187342      -4.30276776      15.72117233      -0.07955463       0.18985530       0.13107039       0.44847780       0.51332239       0.50675569
H      -24.20039132      -5.57818762      -5.53065878      -0.23797752      -0.36817128       0.02124751       0.44328156      -0.77204947       0.11125642
C        8.91719537       9.62427876     -14.04820479      -0.17484137       0.45006355       1.01027257       1.19812015      -1.35700093       0.87744614
C        7.78298227       8.75550848     -14.15069745       0.03579551      -0.01260255       0.01780767      -0.48379267       1.43153084       0.61756968
C        9.51200078       9.72871340     -12.66752690       0.09703382       0.85817139       0.38566408      -2.93021700      -0.82685847      -3.09349926
N        9.63824322      10.09135010     -15.08992821      -0.92106245      -0.77605939      -1.06367984      -2.38878264      -0.38700738       2.36625576
C        6.85604158       8.59896652     -13.08659614       0.89904671       1.27036418       0.27138544       0.09464800       0.86702594       2.70200581
N        7.23481627       8.38431479     -15.39872470       1.04309619       0.28116271       1.53501189       1.26470868       1.08869971      -1.19284922
C        7.26263880       9.10949754     -11.75489296       1.61269455      -0.45135266      -0.69899789       0.68371007      -1.51136283      -1.63229443
N        5.64609849       8.05975763     -13.20912216      -2.22042215      -0.60659322       0.72215210       1.52430916      -0.26104892      -1.84648355
C        8.68399455       9.33410317     -11.50686986       0.04131618       1.13916200      -0.81332287       0.64988985       0.74625018      -0.41850260
N        6.27367933       8.93994719     -10.72929350       1.30048261       0.06805201      -1.41049648       0.23227589       1.86690172       1.26240045
N        9.34713874       9.32333590     -10.32930202       0.36910125      -0.29412900       0.56033580      -4.11549962      -0.49337022       1.36358021
N       10.89702537       9.80791498     -12.60600554      -1.13240552      -1.06887350       0.45060015       0.84020160       0.60513302      -1.28787568
O        7.47717748       9.10027458     -16.36928606       1.42305898       1.22629837      -0.14334598      -0.17585703      -0.74954408       0.02060956
O        6.58265317       7.35714981     -15.42852109      -0.27153773       0.21547725      -0.42371319      -0.39486591      -0.47127865      -0.96026601
O        6.68130991       8.77961958      -9.56971112       0.51330836       0.28009181      -0.80954416      -0.86357690      -0.17654585      -1.27100292
O        5.05706703       9.19962250     -11.01733530      -1.19149605      -0.41346904      -0.61236742       2.08091061      -1.02410890       1.01330488
O       11.32578512       9.72715546     -11.49652061       1.91963925       0.57247418      -1.38009724       2.98738599       0.14107528       2.09686641
O       11.70294404       9.95745082     -13.56815469       0.44657736       0.23483832      -0.18227115      -1.72091374      -0.06812641       0.61757610
H       10.56761211      10.22285884     -14.86670102       0.06483883      -0.10421860      -0.29955688       2.43373125       0.66590001       0.33125143
H        9.39454438       9.98777579     -16.01703472       0.30553441      -0.11267806      -0.14901416      -1.10096333      -0.56448433      -1.84876738
H        4.97830005       8.25539512     -12.48711377       0.24779179      -0.27326154       0.19327157      -0.31352076      -0.19714137      -0.03267422
H        5.55665995       7.53725216     -14.10608851      -0.33977876       0.23417450       0.37702568      -0.67814770       0.50921789       1.23539414
H       10.17972810       9.88194750     -10.36801501       0.32993005      -0.02405901       0.24727366       0.37657780      -0.34624455       0.70899128
H        8.76495777       9.16127650      -9.46226512      -0.12028702       0.25447169       0.20519513       0.98720542       0.47402625      -1.61662322
C      -40.36809970      21.89979065      23.92302186      -1.28594317       0.26512266       0.94513369       3.67617522      -1.81685697      -1.33211308
C      -41.11788855      22.73921547      24.71617051       0.27019813      -0.26138589       0.16915302      -0.71008890       0.07634333      -1.26563992
C      -38.94403884      21.69737994      24.22432405      -1.09272182       0.47570167      -0.09829913      -2.53199631       1.12362635       1.21827807
N      -40.84064537      21.28490528      22.87126426      -1.37924896      -1.59942532      -0.82025458       1.86347739      -1.63862288      -1.73901324
C      -40.50112574      23.47837009      25.69756141      -1.17267396       1.14844931       1.47429065       0.76531644       0.54085979       2.12496137
N      -42.41200466      23.06708350      24.28085820       0.77736532      -0.22389851      -0.87822920      -2.37953311       0.22074193       0.47450588
C      -39.19840599      23.12983178      26.16992558      -0.19221269      -0.01813981      -0.60013182      -0.50710852       0.75065317       1.82204120
N      -41.14017133      24.46897239      26.26519725       1.65771492       0.14189097      -0.80256156       1.09302826       3.17409149       2.66127174
C      -38.44527186      22.17163210      25.53006927       0.47225277      -0.75398399       0.82724936       2.53264427      -3.24878008      -1.57228703
N      -38.72028850      23.62150580      27.49464315      -0.60462682      -1.15078936      -0.55690376       0.04786061       1.08046677       0.46728473
N      -37.31524665      21.55444780      26.03679502      -0.11966938      -0.79664745       0.25519884      -1.56896534       1.43035232       0.01711812
N      -38.07146120      21.13380073      23.27577523       0.54020003       0.02973523      -2.38212435       1.45435870       1.28349321       2.83357486
O      -43.12388434      23.69790606      25.07327090      -1.97215087       0.73902080       1.15631357      -0.09361435      -0.21829540      -0.90934130
O      -42.88786901      22.68229328      23.19945306       0.08750607       1.05974728      -0.95071852       0.50105871       0.31263412       0.69184102
O      -39.44423267      24.09193935       6.58131459       0.25301152      -0.80374682      -1.23865521      -0.60943718      -0.65187089      -1.49199301
O      -37.51655023      23.62411424      27.67234580      -0.25200070       1.39806913       0.74563078       0.57642652      -0.53606598      -0.57435407
O      -38.35355441      20.68373773      22.19568426      -0.76361342       0.56847561      -0.70634366      -1.39623164      -0.89029211      -1.75851221
O      -36.91313875      21.21630866      23.65774076       0.57035503       0.51036087      -0.11959261       1.49909068      -0.77909433      -1.27206210
H      -40.16594287      20.74751566      22.23095838      -0.08910862       0.09813801       0.20310283      -1.32533045       1.16707432       1.54459463
H      -41.78294669      21.45858992      22.64221538      -0.12462016      -0.08438287       0.07973495      -0.95244656       0.01309870      -0.60337823
H      -40.69273041      25.06295342      27.03680053      -0.10033257       0.22789409      -0.03776013      -0.81312864      -1.80959497      -1.75097803
H      -41.95567575      24.84882387      25.82253828       0.20286642       0.05578759       0.04032136      -0.29075282      -0.22682012       0.23382560
H      -36.95469904      20.71305992      25.57820439      -0.20201152       0.20421293       0.36908016      -0.38449637       1.25793139       0.33836357
H      -36.81063931      21.99257758       4.99648628      -0.28439540      -0.09390401      -0.18117574      -0.38707475      -0.32162443      -0.14247563
C      -90.46359049     -20.13896207      16.64762873      -1.17534878       0.47728341      -1.03258239      -0.59351438      -0.78667805      -0.33906751
C      -90.69560508     -19.94663037      18.04118629      -1.51396128       0.40521088      -0.46032103      -1.20498847      -0.81155027       1.80656542
C      -89.19389804     -19.68167647      16.19652367       1.72046144      -0.14842202      -0.15822880      -0.98251607       1.18820160       1.91626924
N      -91.36285516     -20.84126806      15.86005486      -0.37740675       1.14603116       1.81528728      -0.02143727       1.19983694       3.64881851
C      -90.00343988     -19.25417025      19.06539647      -0.87328727      -0.70900946      -0.73687372       4.22234775       0.83571313      -3.67480016
N      -91.80066990     -20.72570810      18.65315047      -0.49691376      -0.38393630      -1.79234942       1.02270004      -0.52939624       0.10518917
C      -88.79656692     -18.59198127      18.44783390       0.73615920       0.58848176       0.64018648      -0.33204855       0.11856848      -0.60206918
N      -90.09278432     -19.18979534      20.37527366       0.76777525       0.99959826      -1.40611345      -2.81068531      -1.45136250      -0.78523139
C      -88.45620349     -18.79910773      17.03230302      -0.22941984      -0.57208267       0.37170025       3.05345788       1.31209759       0.77708486
N      -87.93880841     -17.69434425      19.24517948      -0.40720125      -1.62496508       0.13297559      -0.05018982      -0.00055169       2.23673095
N      -87.23419843     -18.20447826      16.52863059       0.26073483       1.02825973       0.58223969      -3.49932973      -3.03747745      -0.97105351
N      -88.60455015     -20.12380676      15.00811419      -1.09824112       0.48629398       1.29790747      -1.72186711      -0.50080815      -0.26586919
O      -91.50541387     -21.62041282      19.46864916      -0.33452815       0.32470218       1.58612219      -0.73832406       1.43420066      -1.26361020
O      -92.90717285     -20.39356263      18.30306226       1.42522900      -0.54279518       1.52692997      -0.59785732      -0.42366672       0.00216753
O      -87.25973810     -16.84449839      18.67429805       1.88053772       2.01713124      -1.17418622      -0.56489966      -0.64990735       0.72958994
O      -87.88896193     -17.77716933      20.55551721       1.10738137       0.18667180       0.04428917      -0.65976329      -0.16950721      -3.96079725
O      -89.32356061     -20.52334724      14.09436724      -0.89743030       0.40536925      -2.20414253      -0.40532386      -0.11454220      -0.34103042
O      -87.42122066     -20.15979471      14.98673091      -0.35628921       0.38932407      -0.29777320       2.41880710      -0.26225866      -1.02484931
H      -91.19505216     -21.05092886      14.93363427       0.35390349      -0.04415253      -0.24186383       0.83247702      -0.13177825      -1.87500850
H      -92.29848339     -21.03901299      16.21205186       0.20558829      -0.11746773       0.38905660       0.70320151       0.11566783      -0.05919267
H      -89.34131131     -18.70411399      20.78322632       0.01300068      -0.08677443      -0.11242242       0.84340572       0.68492358       1.35533650