1296
Lattice="-38.24660372008049 4.202319508767311 50.00909440208317 0.0 17.392969452547483 -0.31737719068207115 0.0 0.0 -27.809001981479838" Properties=species:S:1:pos:R:3:momenta:R:3:forces:R:3 energy=-1487791.0267086856 free_energy=-1487791.0267086856 stress="0.006638374271231769 0.0014553181255018257 0.0017663069877124078 0.0014553181255018257 0.00826052544643288 0.0003695229936347221 0.0017663069877124078 0.0003695229936347221 0.004719237761431292" pbc="T T T"
C      -22.01864218      16.49288836      29.99320000      -0.47379471      -0.55478118      -1.60850655       0.68595813      -1.36089775       0.39009788
C      -22.97885200      16.93140856      28.99387097       1.10437477       1.25315523      -0.64583889       0.07553097       0.64791721       0.05153526
C      -22.52441903      15.40829849      30.85466575      -0.70070867      -0.10264346      -0.07040490      -1.08735925       1.79897938      -1.11964363
N      -20.71257605      16.95077890      30.16313990      -0.20257807       0.17546845       2.02493830      -3.16544238       1.60617223      -1.71685468
C      -24.41983341      34.11183412      28.89088380       0.21128121      -0.96275017       0.38006946       3.10549761       2.27640580      -0.98655314
N      -22.54169776      17.98061295      27.99966157      -0.22918527       1.80536127      -1.58916255       1.53373349       0.55508341       3.47545068
C      -24.84233473      33.19360804      29.83100630      -0.51522679       0.14725217       0.58025126      -0.37495471      -0.38540793       0.91296257
N      -25.25140351      34.97723330      28.31887257      -0.78740395       1.67474522      -0.28582056       0.49311869      -1.01694410       0.29073493
C      -23.93282958      15.10835394      30.96665266      -0.93447622       0.51722043       0.20785409       3.84713749      -0.09557938       2.17361999
N      -26.22438461      33.10854369      30.10230852       0.87129175       0.90420251      -0.22295907      -0.18139874      -3.83768973       0.21059620
N      -24.21759304      14.31735497      32.03960640       0.36723550       1.30392534       0.33240544      -0.05464408      -0.12630757      -0.22479720
N      -21.62024332      15.07792729      32.00253158      -0.89978700      -0.07135587       1.79534108       1.08965108       0.01359846      -2.38527095
O      -23.19856786      18.29133553      27.02816200      -1.74363515      -0.39259734       0.14903008       0.48963759      -0.39754924       0.24703908
O      -21.47901765      18.61586415      28.38011393      -1.18649510      -1.28923706      -0.27673232      -2.56728505      -0.98898200      -2.03181699
O      -26.57808016      32.14669110       3.02545621       1.10133182      -0.60884195      -0.58583899      -0.23511522       1.97132511      -0.24709947
O      -27.02633885      33.76057280      29.47139187       1.22556452      -0.49226872      -0.46759873      -1.21587860       0.51865486       0.57171555
O      -20.62718056      14.41331441      31.61527568      -1.67547935      -0.02880144      -0.69441605      -1.39464438       0.73933779       1.39587100
O      -21.77802160      15.58299729      33.08593561       0.07479217      -1.60270351       1.32557974       0.10689258      -0.74877171      -0.17347325
H      -20.06291430      16.29699316      30.51007720      -0.14797775      -0.36828155      -0.25655132       0.83932061      -0.30682976       0.41629575
H      -20.50643082      17.88576239      29.67371964       0.23743430       0.09648784      -0.44483835      -0.09438970      -2.43487655       0.92120971
H      -26.19382398      34.70067032      28.43648575       0.04227445       0.05620861       0.34572454      -1.29822091       0.40533050      -0.26130130
H      -24.91909953      35.48082128      27.55486014      -0.17634387       0.06830644       0.18801099       0.26548826       0.89035481      -1.21548237
H      -23.58515979      13.69082506      32.54351864      -0.13509574      -0.00409605      -0.15991821      -0.08420139       0.94358535      -0.81044699
H      -25.00534949      14.60779366       4.74121094       0.08599407      -0.29529330       0.13450610      -1.24177458      -0.39077005       0.28260422
C      -37.30025114       7.12367008      15.48421961       0.24087940       1.00191526      -0.21112225       1.10233147      -0.06769333       2.53995922
C      -37.00762570       6.66482085      16.86084922       0.90336567      -0.23069079       0.10331026      -0.61901700       0.18289389      -2.33975975
C      -38.65345984       7.55486662      15.32199063      -0.07347742      -0.62537674      -0.27004351      -0.62362802      -1.08528725      -0.37538881
N      -36.33636639       7.20557625      14.55221726       1.44406256       0.04073493       0.66911860      -1.52371116      -0.16197801       0.96007090
C      -38.01615852       6.55567999      17.89307827       0.57667873       0.65708598       0.12865519       1.67516790       1.87640014      -0.21062786
N      -35.68756144       6.37183749      17.19526242      -0.34822206       0.23345656      -0.56679087       3.04835718      -0.72481749      -0.26665478
C      -39.31994308       7.02408092      17.60280002      -0.85227530      -0.12392762      -1.66811520      -1.53577537      -0.97662097       0.20733757
N      -37.62332667       6.34332239      19.12500057       0.19321655      -0.71428716      -0.05989442      -3.21341388       0.15992245       1.36582492
C      -39.72629368       7.26474683      16.27168601       0.59860465       0.37246271      -0.23066957       0.63325966       1.13911763      -0.32257840
N      -40.32890031       7.15691752      18.65304243       1.18849843       0.86748131      -0.97229412      -1.91207299       1.62395919      -0.42694748
N      -40.99882499       7.39656686      15.95435090      -0.37646220      -0.60608043       0.63187824       2.39057957       0.43232495      -3.93243062
N      -38.98556046       7.97010470      14.01694639      -0.36575866       0.22005287       0.55680930      -1.25865294      -0.39329013       0.69048145
O      -35.48087263       5.77518279      18.24744809       0.43963679      -0.17391942       0.88142631       0.51733417      -0.31299632       0.26069054
O      -34.66379551       6.64405521      16.49802675       1.87485944      -0.32498963      -0.29163291      -2.29875552       0.15237533       0.19711261
O      -39.99004956       7.16141718      19.81052617       0.71941868       0.19510849       0.05373398       1.56082336      -0.88260910       1.50939085
O      -41.53695628       7.45022191      18.44562730       1.32141102       0.46891469      -1.65919601       1.56602438      -1.19471594      -1.12072639
O      -38.06573944       8.04905176      13.24780617       0.45856394       1.03684798      -0.33800325      -0.23039473       1.16234318      -2.64447463
O      -40.14531733       8.22856583      13.69414194       0.21982914      -0.17107955       0.60194821       0.11450127       0.18174626      -0.12623820
H      -36.57379735       7.56688233      13.67176630       0.00064258      -0.00213231       0.26445811      -0.66637108       0.35364627      -0.94138963
H      -35.40010789       6.97203992      14.60631596       0.01075496       0.03691579       0.20544589       1.68741751      -0.83353758       1.69396876
H      -38.34438946       6.52025329      19.82382715       0.09848729       0.22614497      -0.26038502       0.29582787      -0.17884905      -0.16130330
H      -36.70849789       6.14524939      19.39594407       0.17491071      -0.36150376      -0.11655572       1.39128202      -0.41872813      -0.05371818
H      -41.24311621       7.66447512      15.00084739       0.14738114       0.03616303      -0.42206402       0.46400720      -0.10009710       0.55027681
H      -41.68833797       7.30951061      16.58319781      -0.05000946       0.39608982       0.18363876      -2.55581467      -0.30571185       3.01630496
C      -40.15678263       3.12833229       6.33935105       0.54946751       2.07856576      -0.71594071       2.18454122       0.66077534      -1.86027760
C      -40.74514871       3.97013866       5.36468797      -0.47561252      -0.24553309      -1.79510906       0.80532747       0.41751156      -1.76565680
C      -40.95943979       2.53860127       7.26180107      -0.23361862       0.60806577      -0.04629593      -1.21293908      -0.10751632       0.73790373
N      -38.84274119       2.85729188       6.33333052       0.77244588      -0.97663136      -1.59735926       0.89602863       0.13637470       0.13669807
C      -42.11521766      21.72398893       5.11803094      -0.01367299      -0.32125285       0.90244459       1.43478982       0.31014617       0.58329820
N      -39.85909408       4.63782780       4.25434384      -0.17799855      -1.74424351      -0.39635963      -0.11946821      -1.31396674       2.93297060
C      -42.97681422      20.97678720       5.95303883      -0.66910401      -0.59206563       0.41545986       1.96324571      -1.12217180       1.55095540
N      -42.37362043      22.93974463       4.66931245       0.17503131       0.35254201      -0.62202328      -1.59492971       1.85546205      -2.29091527
C      -42.36124756       2.83162783       7.33362418      -1.15195976      -0.49774170       0.08836459       0.97541289      -2.49702054       0.50431610
N      -44.31622734      21.21595052       6.04811283       0.33115553      -0.82598203       0.01423259      -2.75469761       2.65285409      -0.74079974
N      -43.01574029       2.26411092       8.35041254       0.61241536       0.01256012       0.80164030      -6.03257731       3.50823794      -5.33233139
N      -40.30150801       1.76779255       8.28488851       0.64001089      -0.84880638       0.80967179       0.28612774       2.70593662       0.16955202
O      -40.40532802       5.13601628       3.27123694       0.44219459       0.89752812       0.86278998       1.38965645      -0.33974997       0.73665985
O      -38.63412147       4.61376058       4.50377477       0.03983253      -0.56610022      -0.50099532      -2.11757158       0.92179642      -1.77036602
O      -44.93442929      20.99129551     -20.70241182      -1.01685638       0.47892356       1.55207916      -0.12058867      -0.44629034      -0.65549454
O      -44.88663606      21.80228817       5.10881657      -0.20330613       1.54223196       1.25172810       0.85747278      -0.82764742       0.60341977
O      -39.16871365       2.11285477       8.63890661       1.28653853       1.12216380       1.25899229      -0.00571047      -0.81122194       0.44288932
O      -40.94398444       0.97786414       8.89794021      -0.12800517       0.26413972       0.71602522      -0.71106914      -2.48009735       1.19041390
H      -38.44092780       2.35253100       7.14052008       0.62441715       0.13234114      -0.13063852      -0.56414736       0.65964018      -0.88231928
H      -38.27638177       3.60757784       5.97056689       0.15641471       0.21118913       0.15057539       0.14126581      -0.41258021      -0.38004873
H      -43.29815737      23.26461082       4.39873756      -0.22672997      -0.33407064       0.61075224      -0.09477174      -0.72673835       0.75660992
H      -41.72643152      23.28848180       3.97152967       0.04097741      -0.07789997      -0.18618458      -0.12187913      -0.10626797       0.47031738
H      -42.58954654       1.74440737       8.99928682      -0.20245703       0.27075955       0.15617262       1.40690619      -2.45873317       2.64138641
H      -44.09535782       2.29938077     -19.73198726       0.00961254       0.18110270       0.08585436       3.28362273      -0.30854191       2.12608715
C      -26.37065228      -8.11273143      29.31257579      -0.50645212       0.53242798       0.86059228      -0.26800457      -0.89242003       0.53747281
C      -25.69793796      -7.21808220      30.23174008       0.56261093      -1.29873785       1.67636203      -0.41853936      -1.88284978      -0.28768085
C      -26.97444547      -9.33310506      29.78877224      -0.65536913       1.00876201      -0.44116696      -0.74407655      -0.81174766       1.16940204
N      -26.44165705      -7.81052809      28.03557185      -1.01942495      -1.24785272      -0.64644078       1.98523752       2.31418585       0.27007913
C      -25.71057143      -7.52370184      31.64505557      -0.64684725      -0.26643139       0.82298788      -2.05871016      -0.27746826      -0.92416527
N      -24.98182968      -6.08905362      29.73848389       0.29127700       0.50975858      -0.42116525       0.63132823       1.67261248      -0.16761661
C      -26.61491557      -8.53830922      32.10598646      -2.34665977       0.49169679       0.78641492       0.49585822      -1.13634745      -0.43918956
N      -24.96258361      -6.79339702      32.51625058       1.81106253      -0.03513869       0.41674435       2.30164676      -0.36636642      -2.80455294
C      -27.08093438      -9.63073373      31.19123322       0.14952489       0.71862177      -0.20101284       1.00789961       2.51173149       2.19004320
N      -26.78946811      -8.77037562      33.57114430       1.54337413      -0.07694995       0.66869920      -0.99284063       0.05184706      -3.17712202
N      -27.47724561     -10.78823343      31.68060959       0.65638598      -0.69106545      -0.71603897       0.52486574       1.00311139       0.42333656
N      -27.63966413     -10.27418890      28.90231478       0.21517632       0.32188207      -2.28516267      -1.23901747      -1.30789107       1.65563245
O      -24.72568543      -5.19645045      30.53122958      -2.58788985       0.28258271       0.11032211       0.01679228      -0.47315182      -0.17942686
O      -24.60801430      -5.95815587      28.54300646      -0.12863475       0.10469696       0.55319422      -0.81360936      -1.14173449       0.74566189
O      -26.08808223      -8.20252278      34.34002537      -0.24620857       0.23253682       0.71085699       1.61107179       1.14340145       1.75407438
O      -27.73309432      -9.44686635      33.90692861       1.54510511      -0.91688443      -0.31160646      -0.73261127      -0.83035723       0.29991461
O      -27.55777916     -10.13906266      27.72048618       0.38894335       1.07348241       0.82456628       0.41853784       0.54483034      -1.79396346
O      -28.33547831     -11.23553606      29.37718603       0.27601269       0.14739619      -0.61301441       1.71661508       2.20062682      -0.65382707
H      -26.76001874      -8.32663687      27.27264081       0.35563663       0.17258648       0.01197810      -0.85855882      -1.48039652      -0.46426276
H      -25.74681354      -7.08096987      27.84018097       0.14610615      -0.05898928       0.14901202      -0.45271461       0.11733576      -0.41707145
H      -24.83790573      -7.39943470      33.26976718       0.14317394      -0.16605893      -0.50581533       0.25787207      -0.47169956       2.20613054
H      -24.02588863      -6.73685240      32.01753025       0.11245304       0.43692286       0.29657971      -1.56653445       0.95370411       1.34847020
H      -27.60818067     -11.36943637      30.89729239      -0.63322312      -0.11252165       0.21455620      -0.96956893      -1.83890922      -0.29935128
H      -27.59445279     -11.05748301      32.66989775       0.11402144       0.50876627      -0.29384325       0.27271903       0.80997955      -1.11360870
C      -22.88267056      -9.21756983       9.11367696      -0.12801128      -0.73456432       1.58263240       2.62916705      -0.71370343       0.48686136
C      -21.98489486      -8.27138938       9.74212485       0.55851890       0.27527477      -1.33480798       0.90094401       0.57241091      -0.28055272
C      -24.22559119      -9.03191450       9.23001077      -1.91747952       1.05839865       1.66884914      -2.46676150       0.53647267       0.43205377
N      -22.38945198     -10.36939914       8.60908720       0.49430027       0.54780987       0.50980310      -0.73710871       0.59033936       0.20865133
C      -22.48676751      10.22984823      10.11447510      -0.27385933       0.08030830      -0.36970000      -0.77403072       0.16337562       1.67339911
N      -20.52734318      -8.29272775       9.55170940       0.36337946      -0.33270060       0.95386087      -1.47730717      -1.23838993      -3.50182193
C      -23.89866248      10.37815218      10.33104566       0.91670394      -0.71396009      -0.85268621       1.00291342      -0.18454530      -0.94166672
N      -21.68063787      11.01099253      10.83120729      -1.75358012       0.72026072       0.61556918       1.32361440      -1.01307313      -0.91204156
C      -24.78320002      -8.00215085      10.14052722      -1.38272567      -0.16517095      -1.51334809       0.39655519      -0.78537295       0.08509399
N      -24.30549180      11.40403653      11.25501265       0.85436482      -1.34955691       0.75685118      -0.05840417       0.44616312       0.17127722
N      -26.03686854      -8.13772494      10.50907154       1.57524282       0.42950036      -0.97580600      -2.23266057      -2.08838226      -1.32694890
N      -25.15201843      -9.99790266       8.50809628       0.49881700      -0.65616217       0.34082227       2.81501732       3.48119243       2.03358600
O      -19.75909726      -7.42184522       9.90605624       0.97287375      -1.04087263       1.73908084       0.11750978       0.13667198       1.08422815
O      -20.14526218      -9.13614538       8.71592949       0.24839582       0.08943167      -0.23631502       0.29382608      -0.10522751       1.02303737
O      -23.66587011      12.50887532     -16.54464293       0.76732688       0.18755930      -0.77703898      -2.48548168      -2.56988851       0.58317025
O      -25.23494360      11.07344613      12.01749153      -0.01756487      -0.52372469      -1.34008879       1.11718422       1.67120658      -0.74191181
O      -26.24602350     -10.13274812       8.98119943       1.44325521       0.19166174      -0.13956717      -1.79665763      -1.60254174      -0.59114118
O      -24.71892019     -10.46605032       7.48797765      -0.24765313      -0.84532979      -0.93657388      -0.77058136      -1.38233028      -0.96304182
H      -23.09527479     -10.95664292       8.19154899       0.34669453       0.13126223       0.23515775       0.93848653      -0.14128700      -0.17870378
H      -21.39654558     -10.50749708       8.64245571       0.11622085       0.03171743       0.23560478      -0.18804407       0.04095049      -0.37630483
H      -22.15350451      11.48122278      11.56775906       0.00825173      -0.15970343       0.02200844       0.70381606       0.85318640       0.31597252
H      -20.67513414      10.77297941      10.72384858       0.00119816      -0.04379419       0.06600956      -1.24023266       0.84500577       0.67821466
H      -26.51483051      -9.04691909      10.02121476       0.15228360       0.31453899      -0.13266482       1.28532921       3.44582932       1.79336778
H      -26.51363819      -7.40564711     -16.76343337       0.07118475       0.21819547      -0.32988320       0.59387999      -0.69491299      -0.34703018
C       -8.97441955       6.76750939      -2.40204211      -0.50967876       0.24707897      -0.26929471       1.63949264       2.05636311       5.30289412
C       -8.98078898       5.90904031      -3.44821756       0.80724092       0.34845560       0.50446163       0.93998527      -0.80471454      -0.28691846
C       -7.63709029       7.15204261      -1.79634598       0.10767956       0.34362562       0.83880997      -4.18983986      -0.56504899      -1.75512282
N      -10.05478084       7.17428882      -1.67112595       0.74340873      -2.28442403       0.59677779      -2.16585016      -0.65353672      -0.86922421
C       -7.82014111       5.34208511      -3.96374815      -2.11767821       0.09423595       0.51018432       3.01559265       1.27074295       1.28746707
N      -10.19227623       5.45832819      -3.89740124      -0.59583658       0.22440213      -1.50455580      -1.80957686       3.79135631       0.14252731
C       -6.54707121       5.80835816      -3.44998362       0.23017205       0.63063939      -0.64738768      -0.12850397      -1.69834915      -2.60832619
N       -7.88656280       4.43403142      -4.86668160      -1.27897682      -0.52366603       1.04707558      -1.09040912      -2.33362702      -3.28148908
C       -6.49311383       6.72051858      -2.42504701       0.54688263       0.34171349       0.37086245       2.45851297       1.64411616       1.63176027
N       -5.33328220       5.42413245      -4.22260227       0.46423707       0.03420071      -0.10058939       0.81076995       3.29604349       3.17211221
N       -5.34450488       7.19735107      -1.87738700      -1.21059461       0.95252401       1.26655025       3.42518652      -1.54844216      -1.69440311
N       -7.56340955       8.02110501      -0.66929773       0.85296194      -0.11213906       0.13762622       1.89926739       1.62232938      -0.09671443
O      -10.36422534       4.38636218      -4.39387186       1.19966190      -0.10696361      -0.15824602      -1.31151982      -2.00691024      -0.81062935
O      -11.07512320       6.34403663      -3.80129990       0.53847692       0.48626465      -0.34952728      -0.75659438      -1.77045351      -0.44168681
O       -5.42629859       4.77037603      -5.20133089      -0.98706504      -1.15929746      -0.67279293       0.14068723      -1.68484270      -1.93420421
O       -4.23120505       5.90533237      -3.84390035       0.19004698      -0.28020393      -1.83905634      -1.31970935      -0.80455122      -0.49661401
O       -6.72555821       8.97868828      -0.72766111       0.61817199      -0.53580019      -0.19754863      -2.08702810      -1.34462162       0.51799760
O       -8.21622893       7.80523652       0.34288650       1.08652951      -1.26661599       0.35602977      -0.38531615      -0.02826277      -0.57527337
H       -9.87869089       7.33811457      -0.69156216      -0.21189533      -0.05273788      -0.16283676      -0.06384391       0.13311023      -0.24336010
H      -11.07422878       6.91967504      -1.94430376      -0.25489905      -0.31065401      -0.28932273       3.02525812       0.64516828       0.44047267
H       -7.16107802       4.23217813      -5.56312661       0.44858183       0.01340243      -0.10089219      -0.26172685       0.21857429       1.18696182
H       -8.83531892       4.12874598      -5.10625036       0.00241886      -0.02321638      -0.03553326       1.02636568       0.02646902       0.13241647
H       -5.30078058       8.11177633      -1.53605252      -0.27669389       0.20743103      -0.16555331      -0.79013217       1.01417481       0.76908715
H       -4.39065790       6.97938668      -2.28416707       0.04516411       0.22606754      -0.04126688      -2.24152900      -0.45722454       0.21116924
C      -18.09168817      31.27818028      34.44916047       0.38760386       0.17141597       1.12840730       1.18615689       1.14822468      -3.17537966
C      -18.94216977      30.54106999      33.53801702      -0.43881663      -0.19170878      -0.18025160      -0.37936962      -0.29098695       4.13706366
C      -18.58655495      31.75591531      35.70019871      -0.75583841      -0.87327387       0.22458414       2.26154993      -1.39338746      -2.16934271
N      -16.89882670      31.70462053      33.85541248       0.57092433      -1.07925086      -1.36791486      -0.64652649      -1.07329981       1.13554134
C      -20.22168338      30.15068403      34.04510602      -0.08153680      -0.22749356       0.88287106       2.03090949       1.06485698      -2.04439198
N      -18.46522793      30.08915658      32.28002285      -0.89558173      -0.27690595      -1.54783908      -1.21035143       0.26888319      -2.33832832
C      -20.71449445      30.94457422      35.11530108      -0.04747391       0.35748760       0.73264651      -0.69931727      -1.15206416      -0.16372398
N      -20.94732699      29.27996342      33.29515999      -0.01217036       0.99488138      -0.46568966      -0.35845540       1.80426259       1.15259343
C      -19.92303459      31.68917122      35.97278626       0.51189559       0.54814483      -0.28313248       1.32991464       1.40504287       2.28956983
N      -22.11022190      30.94916597      35.30995515       0.37891971       1.32626641       0.23570709      -1.10334649      -0.15746815      -0.08533163
N      -20.27679844      32.49677860      37.07028999       1.34828313      -1.12227446       0.57993262      -2.22776801      -0.42200302      -1.52191862
N      -17.57812254      32.29961989      36.62184126      -0.82312206       1.00646767       0.42857298      -2.06378333      -2.20999974       2.13498018
O      -18.73133359      28.98096160      31.80464517      -0.76966614       0.56527280       0.19285228       0.13859982      -0.44073433       1.20881158
O      -17.99912546      30.93631216      31.55473567      -1.15219492       0.04593832      -0.71018355       1.27234618       0.55985070       0.04731196
O      -22.59822393      31.93578991       8.02433006       0.03210985       0.37845649       1.32559441      -0.36406762       0.20732520       0.25483144
O      -22.79040066      30.01395425      34.90324056      -1.31420292       0.00564210       0.86302646       0.05887773       0.07720923       0.20833037
O      -17.52336018      31.85647643      37.76499791      -0.17397150       0.37860609       1.35642750      -1.09204896      -0.67969866      -0.06168390
O      -16.81767791      33.10673595      36.26521234      -0.37593556      -1.04798732      -0.11141579       2.36242965       3.05440760      -2.35144107
H      -16.29890213      32.30868537      34.36447148      -0.11579373      -0.16956029       0.17732644       0.35607318       0.22012564       0.44286809
H      -16.43291422      31.15381530      33.13134026      -0.15319988      -0.34184173      -0.04096034      -0.71088828       0.54567568       0.67510760
H      -21.43202664      28.70000740      33.89408946       0.04997396      -0.15129050       0.12171718      -1.86522551      -1.36121776       0.68752577
H      -20.49323430      28.86653419      32.54261537       0.42653346      -0.06026494       0.07092182       0.98783251      -0.87809394      -1.07121117
H      -20.00728503      32.26602521      37.99607361       0.56426595      -0.52665592      -0.25732171       1.06194025      -0.67291014       0.42349205
H      -21.28429590      32.53815265       9.26844004       0.18609992       0.27587837      -0.33258798      -0.17776586       0.35802359       0.16355999
C      -48.41879637      26.21542265      35.43580227      -0.67887912       1.43475250       0.22560008       2.34922303       2.82802703       3.41048666
C      -49.57080809      26.27223727      34.72316609      -0.23020679      -1.23285198      -0.36344411      -1.14289566      -0.33203863      -1.32412121
C      -47.52667882      25.09185362      35.33121270      -0.17644498       0.20837747       1.43088875      -1.40246772      -0.59649142      -0.64773303
N      -48.03701244      27.31942465      36.31180035      -0.36426363      -0.47722628      -1.07327892      -1.50247767      -1.66704382      -2.33480454
C      -49.95624188      25.16524319      33.85742774       0.73569691       0.79128272      -0.28582744       0.93806831       0.28417573      -0.78434851
N      -50.42056157      27.51042389      34.69191041      -1.06774046       0.51393470       0.23535193      -0.14546401      -0.80587259       0.05945774
C      -49.01532858      24.03165289      33.71533061      -0.44126120      -0.08988879       1.27875349      -2.60206718       1.80173406      -0.33133857
N      -51.03188477      25.26179094      33.10702898       1.79862535      -0.36858809      -0.09055150      -1.36157423       1.91424978       0.59123650
C      -47.82127187      24.02672738      34.44542829       0.79603638      -0.21545134      -1.33219647       0.15933092      -2.48325352      -1.58198432
N      -49.39404731      22.95384903      32.83305870       1.61218132       0.23426647       0.30733926      -3.25642367      -1.04606565      -1.10557840
N      -47.03793353      22.95026581      34.22227680      -0.39095104       0.23150198      -0.47672398       2.45017993       4.68385701       6.22319622
N      -46.61014596      24.81519810      36.30393115      -1.36842265      -0.26956525       0.27678564       3.56114861      -0.84573833       2.57343882
O      -50.85324649      28.02935773      35.72308579       0.93553449      -0.84971954       0.74852119       1.00343487      -0.61712430      -0.69863995
O      -50.72253797      27.90623556      33.56628680      -0.13583123      -0.60042219      -1.86608029       0.06308456       0.25164028       1.00890593
O      -50.58568304      22.87432528      32.35920943       0.17255016       0.00419985      -0.17748809       2.20171037       1.21102623       1.25862163
O      -48.65460141      22.03164982      32.53806517       1.45907271      -2.53318968      -0.76098678       1.04325582       0.57688194       0.18425293
O      -46.07217742      23.64485567      36.45608194      -0.91890942       0.77970973       0.12416768      -1.47958137       2.59750230      -0.57249100
O      -46.23385893      25.72825399      37.05391308      -0.46009351       1.18575322       0.01187571      -0.14791867      -1.01330166      -0.41110068
H      -47.24583647      27.20032580      36.92650570       0.53380549       0.39587695      -0.20981838      -0.31015626      -0.28294056      -0.15713678
H      -48.79592581      27.92465191      36.59754890       0.04374446      -0.05665885       0.07679488       0.24686909      -0.21340488      -0.20485463
H      -51.45406663      24.44394256      32.76410143      -0.29265063      -0.18048233      -0.17489815      -0.09783417      -1.24553321      -0.68335004