1296
Lattice="-40.40316767466478 7.805983880927928 46.15361490523005 0.0 16.72996387112697 0.33532214709885694 0.0 0.0 -28.85778866130785" Properties=species:S:1:pos:R:3:momenta:R:3:forces:R:3 energy=-1487790.7278520162 free_energy=-1487790.7278520162 stress="0.004375651550528113 8.236983091539801e-05 0.00012536419263887598 8.236983091539801e-05 0.003480886086633076 -0.0014305142735057388 0.00012536419263887598 -0.0014305142735057388 0.002680277577279116" pbc="T T T"
C      -26.61094404      18.23486588      28.48065449      -0.24911118       0.04843347       0.29669879      -2.43063329       0.07738953      -0.51271557
C      -27.94947846      18.86291370      28.20322411       1.41026028       1.49770883      -0.50572177       0.78641624      -1.03984235      -0.82797115
C      -26.40451858      18.12321657      29.86819909      -1.07923698       1.21921896       0.35695638       2.10895348       0.01521075       0.55712414
N      -25.83287694      17.67922037      27.53212177      -1.94056014       0.53529330      -1.20246162       0.28963944       0.31377844       1.98070627
C      -29.05304182      35.60462880      29.39634551       0.40309303      -0.57939554       0.50084826       2.21274574      -1.42371803       1.23465785
N      -28.21577609      19.44002885      26.93197793       0.34345203       0.40146239       0.53853279       2.47527691       0.05515063      -1.10213008
C      -28.70746542      35.31088577      30.72504585       0.11799418       0.93370324      -0.10383065       1.35852128      -0.31182664       1.23799976
N      -30.31474478      35.73070147      29.10072104      -0.11859709       1.69946946      -0.63731266      -2.04768260       0.59174813      -2.42471035
C      -27.35108879      18.67031605      30.76443796      -1.14397154       0.15525134       0.93069135      -0.70390279       0.24011905       2.50830767
N      -29.67149803      35.87946107      31.68861713      -0.79603283       1.14562664      -0.05519369      -0.29437691      -2.57922321      -2.03917835
N      -27.00524585      19.23356769      31.98147737       1.12350098       0.48332847      -0.85399628       2.58962203      -2.01386394      -1.02543457
N      -25.10159333      17.64577273      30.34936036      -1.09354674       0.30760551      -0.11892169       0.33428477      -0.73582730      -2.06356379
O      -28.62342844      20.57618917      26.90218759      -0.87764104       0.51997981       0.52907211      -1.39083913       0.44060103       0.03440869
O      -27.78801972      18.85790191      25.93261641       1.12883170      -0.00174034      -0.99460637      -0.44990322      -0.37935846      -0.31843994
O      -30.57832456      35.17026595       3.31225627       0.41695616       0.09367225      -0.96183466       1.20743180       1.46823210       0.15026840
O      -29.52490097      37.05434571      31.67091767      -0.71644363      -0.05266178       1.00892036      -1.43228410       2.59069716       2.11553335
O      -24.22337506      17.45463791      29.45382420      -0.78782319       1.22709818       0.06303253      -0.86339642       0.29260347       1.61310798
O      -24.88257080      17.31006794      31.50718884       0.39024960       0.55522861      -0.07449985      -0.58569124       0.75871094      -0.13334607
H      -24.93399354      17.30133939      27.88627231       0.07774328       0.19887422       0.05477720      -0.97993128       0.71661932      -0.63721656
H      -25.96951927      17.96179650      26.60392160      -0.09414051      -0.13346527      -0.19489873      -0.34216594       0.08874537      -1.26115302
H      -31.05231091      35.44342568      29.73179084       0.05737955       0.20425299       0.34873204       0.14271414      -0.01641868       0.11093433
H      -30.61508977      35.69912937      28.11848784      -0.13543798      -0.02653268      -0.23241783       0.26480746       0.28295356       0.81996353
H      -25.97875216      18.97873052      32.27337462      -0.08117629       0.18003761       0.04840489      -3.15841728       0.76635761      -0.36958353
H      -27.71785610      19.24486770       3.85106585      -0.04939141       0.04648380       0.29678218       0.91261862       0.08199978      -0.29624139
C      -35.71126419      10.94501058      11.31355308       0.47356851      -1.00398815       0.00415152      -1.91450704       0.91807453      -0.39476243
C      -34.99329511      10.03206258      12.09123376      -1.07760243      -0.88156618      -0.18553532       0.25758457       0.23897881       0.19245800
C      -36.71525504      11.73916477      11.97188935      -1.35066582      -0.09495514      -0.83389645       1.47976106      -0.02463418      -0.65094089
N      -35.64422264      11.07546858       9.97453825       0.44296829       0.89875613       0.91205776       2.80609904      -3.38969643      -0.94814852
C      -34.99453800      10.13584608      13.55068005      -0.57634536      -0.39901501       0.00331389       0.97486147      -0.52036680      -1.30974426
N      -34.00316256       9.24812622      11.34101151      -0.38482016      -0.63114325      -1.41484094       0.45419519       0.55740590       2.91193466
C      -36.00510803      10.95243352      14.16250153      -1.27724185       0.32592058       0.48923984       0.38336582       0.42849307       0.20798973
N      -34.04169442       9.47864460      14.23621042       0.18862104      -2.12248051       0.45999375      -1.50133239       0.95034866       1.25417892
C      -36.81909328      11.82553424      13.38903175      -0.33112063       0.01992980       0.19149111      -1.38523476      -0.56064585      -0.68002145
N      -36.13267633      11.03666867      15.62219120      -1.22623271       0.49609726       0.67205270      -0.18835065      -0.78344357      -0.49963684
N      -37.74705614      12.66153538      13.89649139       0.19516930       1.26560263      -1.01457318      -0.49106669       0.21441467      -1.36627064
N      -37.57564533      12.48382036      11.04927687      -0.85596412       0.08668627      -0.17162915       0.71923084       1.69477889      -1.48315912
O      -32.93555789       9.01112192      11.89535186       0.17624215      -0.32926389      -0.77933255       0.97795412      -0.10113756       1.01159577
O      -34.19364751       8.83862063      10.25110111       0.46915343       0.27024007      -0.83663454      -1.41582382      -0.45105507      -2.75612821
O      -35.11247391      10.78400528      16.27005749       0.27397508      -0.88113020       0.11071280      -0.90895887       0.39058317       0.24706396
O      -37.24525118      11.24796614      16.13438501      -1.03216719      -0.48207755      -0.82458086       1.70648294       0.06061623      -0.48059886
O      -37.13117402      13.09249889      10.01504317       2.12365146      -0.02340775      -0.42392086      -0.66426158      -1.23940477       2.51450937
O      -38.75470335      12.52450792      11.30046144       0.27670455      -0.09736149       1.70404718      -0.66613026       0.00256255       0.46934764
H      -35.85404210      11.90928192       9.50728653       0.41515814       0.16082504       0.20959955      -0.63131943       1.10774650      -0.09354546
H      -35.03696699      10.41795117       9.41120363       0.09773986       0.28071139       0.02175228      -1.11171413       1.06610511       1.48685591
H      -33.98851573       9.81065903      15.19994394      -0.15205666       0.05269288      -0.15296793       0.27740393      -0.64722077      -0.45461030
H      -33.32982312       8.93424279      13.79587991      -0.09966395      -0.14247623       0.32140166       0.03822708       0.18178478      -0.34650416
H      -38.44981557      12.91936112      13.19615516       0.27605412       0.00592349      -0.07686819       0.37155477       0.16078436       0.76416427
H      -38.06720900      12.67367510      14.83604377      -0.09964271      -0.32503023       0.06163552       0.26303884      -0.49071980       0.48509041
C      -39.59677364       8.60012148      -3.30016138       0.23071031      -0.48786613       0.25794306      -3.43081052       1.69235145      -2.78922135
C      -41.05772675       9.06751849      -3.26831285      -0.60928094      -0.49898905       0.26815665       2.01274399      -0.65831550       1.55480699
C      -39.00756848       7.97772733      -2.21356644      -0.89447384       0.65340578      -0.01444197      -0.23182014       0.88226144      -1.84338215
N      -38.99431468       8.75782026      -4.47428735       1.15265902       1.08819870      -0.78192942       0.24808397       0.53494523      -1.30732699
C      -41.62617747      25.76773107      -1.61264611      -0.72721270      -0.82743039       2.15115078      -2.29586642       2.31911338      -3.02691860
N      -41.81887963       9.64848876      -4.38088534      -1.41446669      -0.23011371      -0.33098093       2.58106688      -1.57130663       0.13581393
C      -41.02277965      25.04099370      -0.62182863      -0.03530039       0.16506260       0.39598750      -0.90574125       0.13315596       2.32434199
N      -42.76736380      26.46795302      -1.45069905       0.16129893      -0.12754083       0.10905827      -0.54885152      -0.80133107       2.72570584
C      -39.79382721       7.70621101      -1.11904896       0.14041156       0.61651171       0.34612695       1.50636296      -1.72659128       1.50890381
N      -41.71325518      24.96359364       0.64458940      -0.75415974      -0.42765474      -1.34676890      -0.74596688       0.08495421      -0.27152756
N      -39.29579077       6.83955834      -0.24528037       1.08269924       0.54156475       0.36417468       0.22294810      -0.16680271       0.29319014
N      -37.58591717       7.71448869      -2.28135373       0.22096797      -0.09033492       0.15520936       0.64249685       0.06111756       0.49100770
O      -42.92265288      10.10508680      -4.21093675       0.23112993       0.23594061       0.28917894      -1.30128258       0.38430569      -0.31562232
O      -41.30942084       9.58750156      -5.49451839      -0.73669976       1.06553503       0.71550630       0.12271178      -0.02660317      -0.05910778
O      -41.21631414      24.41082003     -27.24961710      -0.12098625       0.05845309       1.12694384       0.92702364      -0.59774026       0.32923007
O      -42.83943099      25.44669213       0.74573618       0.52171295       0.86744893      -0.45937341       0.01389340      -0.20557249       0.54086933
O      -36.85347107       8.63810338      -2.57101296       1.57109364      -2.16412349      -0.05624652      -0.28369234       0.48248889      -0.54039179
O      -37.13414690       6.61544363      -2.00567385      -2.01399713      -0.25519611      -0.36940780      -0.62967961      -0.74236442       0.25922463
H      -38.17850872       8.25524059      -4.70444632       0.09650368       0.25130706       0.02173133       0.87012063      -0.36963335       0.27571265
H      -39.41529249       9.21759773      -5.30183611      -0.55806672       0.37155433      -0.27694273      -0.32791594      -0.40101653       1.28564868
H      -43.24520298      26.40954759      -0.50022593       0.05775425      -0.26855848       0.18421578       1.16099020      -0.01319209      -2.22617070
H      -43.28775410      26.65645669      -2.28166193       0.00013191       0.01236204       0.37383962      -0.01777251       0.54016403      -0.27723862
H      -38.48234448       6.31557183      -0.52814876      -0.11185042       0.01409578       0.11188615      -0.03600908       0.15544794       0.44461657
H      -39.67332186       6.84799850     -28.17608346       0.30045851       0.16347904      -0.12145803       0.10143231      -0.40276503       0.25786504
C      -29.73199354      -4.38002078      26.90067575      -1.06717814      -1.16771228       0.49166868      -1.71403237      -1.41646157       0.57158566
C      -28.80660985      -3.33285810      26.87529176      -0.42631600      -0.44842402       0.16674689      -0.00405146       0.62591227       2.33857823
C      -29.93192631      -4.99699723      28.16697343       0.38691245      -0.10137922       0.03215110       1.37484018       0.70836891       0.94455299
N      -30.41439534      -4.81329420      25.82519115       0.44805804      -0.70786265      -1.11552714       1.77578881       1.10556378      -0.95653131
C      -28.51145960      -2.60662169      28.19130092       0.15347900       0.09328114       1.44720577      -1.32382338      -4.79501209      -2.50614196
N      -28.45459774      -2.80600812      25.66087508      -0.11976360      -0.60417513      -0.13140482       1.57926825       2.38271933      -2.29283667
C      -28.60558105      -3.36082943      29.40263477      -1.26845297       0.77378734      -1.31146110      -0.84689353       0.03767186      -1.47660822
N      -28.20632340      -1.38426780      28.08463247      -0.06333867      -0.25373919      -0.54574993       0.17602431       0.58127023       1.63144134
C      -29.22600389      -4.62931665      29.40191010       0.46354107      -0.04979055       0.22088310      -0.14931411      -3.15439497      -0.01481027
N      -27.94844343      -2.90274024      30.54357922       0.14986102       0.38757927       2.11637399       0.69865587       1.32593058      -0.24574331
N      -29.07655844      -5.49519409      30.49218869      -0.32563932       0.05635409      -0.46911374      -2.18393374      -0.30642313      -2.75799222
N      -30.93331131      -6.01540052      28.23060593      -0.05406071      -0.33681475       1.17207782       1.70129942       0.23713695       2.65644832
O      -27.45891769      -1.96818478      25.65265847       1.63140291      -0.43683215      -1.04635036      -2.67553863      -1.84295698      -0.21799591
O      -29.08133718      -3.09844964      24.60564455       1.26829510       0.54540015       0.24608515       1.97615115       0.77641809       1.69764550
O      -27.89066009      -1.66113822      30.74449621      -0.53211147      -0.26882676       0.29312012       0.24580439      -1.83192502       0.10290982
O      -27.40355939      -3.76352976      31.21195678      -0.64889374       0.20924149       0.70804541       0.22095176       1.26254914       1.10551134
O      -32.00012498      -5.73251415      27.79986052       0.88384676      -1.31948509       1.19830711      -2.71384288      -0.16155057      -1.61993776
O      -30.70369271      -7.00393308      28.90867577      -0.16075779      -0.20689121      -0.04279396       0.05356996      -0.75614174      -0.12020417
H      -31.21534422      -5.37902316      25.83160210       0.09414069      -0.37671814      -0.16906267      -0.59985330      -0.76314750       0.57001422
H      -30.09628418      -4.45676477      24.90570507       0.13451553      -0.03416225      -0.10074305      -0.46635519      -0.26872412       1.23565086
H      -28.12911759      -1.01397694      28.99575523      -0.14564840      -0.03377367      -0.37763699       0.58731433       1.91665052       0.59282856
H      -28.03413994      -1.14624580      27.15620063       0.14072570       0.08454867       0.25349250       1.02954389       1.80425946      -1.50704181
H      -29.54683031      -6.41291664      30.66530467      -0.42412088      -0.01035782      -0.05330530       0.35851983       1.62786218      -1.18717310
H      -28.62958301      -5.10378836      31.25677947       0.12988608       0.37863503      -0.05343375       0.89521484       0.56459247       1.40792532
C      -19.93913643      -5.19703209       9.49214364       0.39377117      -0.80443036      -0.75365343       0.05601190       0.71345269      -3.41711355
C      -18.73701401      -4.56358913       9.99550520       0.06974563       0.18248011       1.10948412      -1.05041159      -0.55525773      -1.90395042
C      -20.81437819      -5.79872651      10.41409570      -0.73717461      -0.60784285       0.44662807       0.93853451      -1.14658316       1.45134654
N      -20.23456032      -5.15698437       8.13686256      -0.72595240      -0.64996235       0.46457168      -1.40379300      -1.19215904      -0.31681581
C      -18.12447647      11.61324677      11.46218517      -0.57289307      -1.11556698      -1.16717602      -2.14292564       0.54179557       0.76846705
N      -17.94827510      -3.68720620       9.10004901       0.38560911       0.86188370       1.50797983      -3.69005326      -2.84488428      -2.72148485
C      -18.92497933      10.83356999      12.37624585      -0.96114746       0.51343902      -0.75313178      -0.32419034      -0.48800226      -0.82161179
N      -16.93674100      12.04343833      11.71458958       1.11459191      -0.30554762      -0.05152467       1.64935508      -2.82268484       3.44624337
C      -20.30255265      -6.14533793      11.72332851      -1.06022779      -0.28822244       1.13400612      -0.12130501       0.28663203       1.79373670
N      -18.32874635      10.20756243      13.54982810       0.63650432      -0.21047593       0.65648033      -4.18998523       1.48696390      -0.98128632
N      -21.08118391      -6.63578726      12.69371741       0.32527427       0.10198289       0.54551605      -2.76484276      -1.45234215      -2.11889585
N      -22.00100172      -6.43184855       9.99001931      -0.47014878      -0.97231621       0.40006209      -1.65118370       1.36095913       2.99068225
O      -17.21736716      -2.88330704       9.54231845      -0.73432753       0.45737326      -0.53054027       1.98919345       2.09626898       1.24953584
O      -18.17796044      -3.78844191       7.85583968       1.30407675      -0.41423278       0.00911596       1.11788310       0.57896646       1.71609260
O      -17.14338540      10.14075427     -15.31395227       0.50319690       0.79387423       0.18417373       2.61158879      -0.79700851       1.22799255
O      -19.11378775       9.84582171      14.46208868       1.42652516       0.29183256      -0.60829962       2.73191510      -0.12635981      -0.47987091
O      -22.88723493      -6.77073055      10.82561899       0.93661738      -0.40106618      -1.12327622       1.07868978      -0.39520992       0.05993433
O      -22.27959924      -6.44001838       8.84294699       0.97645597       0.32623439       0.28441233      -0.64756676      -0.69692698      -3.66535603
H      -21.10105352      -5.67648078       7.71045967      -0.20457785       0.16008111       0.33285370       2.36586404       1.43548227       1.93281462
H      -19.53356695      -4.80186524       7.46266117      -0.14649942      -0.05832691       0.26533626      -0.71657469      -0.18457032       1.38165068
H      -16.40297027      11.49291727      12.38838306       0.20049773      -0.08446432       0.15930455      -0.15116442       0.72282003      -0.27408406
H      -16.52702999      12.65520436      11.11511907      -0.07218495       0.07619235       0.23321500       1.70635915       1.94590334      -1.64911161
H      -22.07721020      -6.92633743      12.33866769       0.44742306      -0.13447487      -0.53418964       2.57416383       0.91675110       0.98699183
H      -20.63597808      -7.09012055     -15.35843755       0.21627592      -0.15205529      -0.02128707      -0.38111936       0.77640486      -0.57660439
C       -5.16231906       7.87220439      -0.55497179      -1.47804777      -1.14291892      -1.79763333       1.01209169      -2.15722720       1.72310292
C       -6.27104724       8.04197305      -1.43562035      -0.09775636       0.82138322       0.08337083      -0.38354335       0.67203894      -0.33460512
C       -4.19916911       8.95141240      -0.38042637       0.30488162      -0.63628482      -0.27913044      -1.05686563       0.06790873       0.54552841
N       -5.00538783       6.67607759       0.14496361       1.39124487      -0.88314059       0.37844232      -0.62107697       0.64923930      -1.03097732
C       -6.78117097       9.40034112      -1.70145379       1.59624088      -0.46267929      -0.36657421       3.22349282      -1.28517529       1.67551557
N       -6.94457699       6.88390021      -2.04585383      -0.03087000       0.85462595       0.65947390      -0.86226769       5.03623391      -1.94737385
C       -6.00661395      10.46028516      -1.16112558       0.28834508       0.18479161      -0.18783228       3.17950753       2.11508473       1.27229259
N       -7.85408617       9.58594258      -2.34664635      -1.26810399       0.26866422       0.12028826      -2.82073919      -1.56717749      -2.26375153
C       -4.61987765      10.32022748      -0.57403785       0.11141951      -0.01076275       0.10226273      -4.25300294      -3.49402134      -2.21894005
N       -6.39725663      11.84818057      -1.33851314      -0.85871883       0.62170606       0.33026020      -0.94132880       0.61121888      -1.58358012
N       -3.88270009      11.28682498      -0.26916800      -0.31140474       1.63267463      -0.07249244       1.46790811       2.69414425       0.66489404
N       -2.96858007       8.73164443       0.30430317      -0.13969221      -0.53271985       0.93829696      -1.60885700       0.31595311      -2.04343038
O       -7.58669623       7.09623219      -3.13820816      -0.23652198       1.33458591      -0.36710158       1.09359589      -0.58778779       2.00250530
O       -6.89289762       5.86480014      -1.49008211      -0.11838145      -1.30538889       0.25424278      -0.08582438      -3.81652148       0.92071749
O       -7.56460084      11.97148372      -1.74759143       0.64109113      -0.33317119       0.37813389       0.54514247       0.79508264       0.45597260
O       -5.67441526      12.86926550      -1.20477013       1.14657152       0.69800988      -0.81036368      -0.67539023      -2.23847441       0.25901807
O       -2.13464372       9.63278784       0.25579072      -0.52399626       0.96200209      -0.26586793       1.31094250       0.46644144       0.74712231
O       -2.72773539       7.64868021       0.73422207      -1.32905990       0.10599346       1.13598261       0.99568241      -1.85417773       1.31584098
H       -4.16001492       6.34695649       0.63564478       0.10367956       0.47137317      -0.12780190      -0.71876189       1.20632090      -0.77025909
H       -5.75353762       5.98690174       0.03187395       0.36353075      -0.33034294       0.06751902       0.58526787       0.65493560      -0.22056210
H       -8.19783494      10.52515612      -2.47919714      -0.08575535       0.02176469       0.34142190      -0.03548741      -0.03803070       0.03615966
H       -8.25640793       8.69990000      -2.76280660      -0.11650988      -0.10701618       0.12503554       0.46447612       1.43074434       0.25485626
H       -2.98673291      10.91967989       0.05043761       0.16226126      -0.24512475      -0.04092565       0.65071783       1.00693391       0.17834183
H       -4.14821386      12.26513851      -0.38920961      -0.21602351      -0.10314523       0.20855509      -0.17634970      -0.59797333      -0.13475745
C      -19.14698972      35.12747829      33.06267281       1.07074006       0.51098829       0.98231822      -0.92563558       1.56805892      -2.13022446
C      -20.29702833      34.90826995      32.18480023       0.12508209       0.51449668       0.34223996      -1.60528782      -2.13383990       0.70708933
C      -18.46262108      34.06170866      33.55394405      -0.38472805      -0.36769282      -0.21425506      -1.11870377      -4.23866900       0.54000232
N      -18.70885735      36.36979540      33.25630646      -0.24950759       0.21268498      -0.12185323       0.29574057       1.65131791       0.21521152
C      -20.85279341      33.53184770      32.01200508       0.21387456       1.21588534       1.09145411       1.47301153       1.96239144      -0.66379240
N      -21.10347726      35.96556951      31.66610277      -1.95354808       0.22128176      -0.35181023      -0.47998178      -0.05868234       0.41313640
C      -20.07994099      32.49372980      32.57758005       0.96487611      -0.97397602      -0.73751994      -1.33627567      -0.18857598      -1.25762325
N      -21.86834738      33.33875093      31.18451289       0.99149520      -0.77859848      -0.12482681      -1.41609326       1.00168396       0.23321587
C      -18.89633952      32.68811609      33.24324006       0.45129981       0.32662696      -1.85918495       2.50331010       1.02952324       0.97137758
N      -20.51233264      31.12266766      32.29047910       0.55195169       0.77582550       1.15120748       0.35354449       0.08616480      -1.85002455
N      -17.98254063      31.67364913      33.44467426       0.21295123      -0.17902098       0.63432793      -2.51694592      -0.45534933      -0.24736420
N      -17.36607002      34.21203263      34.51184326      -1.47775623      -0.22001424       0.37609385      -0.65477999       2.20091538      -3.19770200
O      -20.58967658      37.07904274      31.55491993       0.62053828       1.17840581       0.95055245      -0.12905538       0.03921769      -0.23111091
O      -22.31154172      35.79085329      31.35247026       0.56080729      -0.60155821       0.58150583       1.53334026       0.55736035       0.32853038
O      -20.49922683      30.37840803       4.35905256       0.54976278      -0.00373322      -1.44214480       0.17605198      -1.53522649       2.60556572
O      -20.81095521      30.70704454      31.16866840      -1.78529811       0.35744469      -0.91277025      -0.04438472       1.37137135       0.03046310
O      -17.37320184      33.70595450      35.57843280      -1.36621010      -0.05550181      -1.74409164      -0.12965096      -1.87719176       2.34709622
O      -16.51984243      34.99074233      34.12374144      -0.02366559       0.76557899       0.21074387       1.14006768       0.45638608       0.24508114
H      -17.78435485      36.49138178      33.65780473       0.19009648       0.08636902       0.05879508      -0.47745120      -0.02590071      -0.32505930
H      -19.09070816      37.13522934      32.68589615       0.17160087       0.36351181       0.04529573       0.45976787      -1.00091379       0.53912068
H      -22.09754442      32.42896991      30.80552914       0.16888610      -0.18019631      -0.09789936       0.15593048       0.23711753       0.40412893
H      -22.52402190      34.18722801      31.05781686      -0.29541322       0.07096600      -0.03694768       1.64627746      -2.01338744      -0.10227286
H      -17.26882956      31.85635521      34.09701839       0.20014075       0.19597928      -0.19669704       0.74022644       0.04634842       0.53710537
H      -18.40789867      30.74121927       4.68382192      -0.06161361      -0.22552287       0.06140361       0.60564784       0.89285520      -0.10635886
C      -53.60736291      29.03847929      33.14307392      -0.12252570      -0.34253346      -0.85732101      -1.72246728      -3.52570579      -3.15201216
C      -54.02886730      28.06631628      31.99963371      -1.65016440      -0.20044883      -0.11080946       0.05848551       1.04579006       0.94655789
C      -52.47490501      29.87354077      32.94457917       0.64025302       0.69948715      -0.16328207      -2.22327569      -0.58134709       2.08160333
N      -54.35478292      28.94210990      34.20264953       0.57600990       0.91701334       0.54284071       0.47487825       1.28770242       0.97704658
C      -53.16931579      27.83300872      30.86918366      -0.88596804      -0.07400745       0.35903538       1.49052100       1.38121707      -0.93546475
N      -55.29598311      27.33751987      32.08770224      -0.12751461       1.23923599      -1.84076079       1.93028589       0.74783580       0.44698840
C      -51.97476499      28.65232442      30.81343839       0.39358301       1.04938917      -0.18380013       2.50512710       0.48242283       1.68235745
N      -53.33439603      27.05798548      29.79961572      -1.16783064      -0.18269905      -0.84528318      -2.41279975      -0.95588050       1.85254836
C      -51.63731194      29.68700488      31.85283231       1.31402127       0.91394985      -1.43045376       1.58407711      -0.25372917      -3.64004961
N      -50.82103283      28.27421051      29.95525473       1.50196213       0.53551350       1.28653366      -0.66151193       1.16995275      -0.09670705
N      -50.56754161      30.47693113      31.59136284       1.24965145       0.67932705      -0.06592562      -4.93868481      -0.76571096       3.57699483
N      -52.34323782      30.94378732      33.91805483       0.66914545       0.71884295      -0.17603561       0.26376734      -0.55096938      -0.28160489
O      -55.51281159      26.53816944      31.18633958       0.41203332       0.10531364       0.45321521      -0.61442633      -0.19950607       0.02928996
O      -56.07470398      27.50631790      33.04430307      -1.32049352       0.66758230      -0.43226746       0.20718473      -0.36204790      -0.88661427
O      -50.95188665      27.43282917      29.06013376      -0.47450176       0.95925049      -0.38591685       0.08554618       0.22996281       0.58616745
O      -49.72235591      28.88280739      30.07402445      -0.72359744      -0.04312483      -1.15458568      -1.10479860      -1.64693194      -0.52832676
O      -51.62225195      31.82976162      33.52819827       1.86412683      -0.41257324       0.21728876       0.85886316       1.72044511       0.19990171
O      -52.90069116      30.97121491      35.01824578       0.97553270       0.09504238       0.03380809       0.29736135      -0.48073798      -0.96181463
H      -54.08090665      29.51426313      34.97633836       0.10303559      -0.14875735      -0.15748133      -0.03744330       0.30690286       0.42550675
H      -55.26278073      28.49950846      34.21916684       0.40777372      -0.00666372      -0.17311198       0.10226571      -0.38015265      -0.37700327
H      -52.59605552      26.96565761      29.08211105       0.41948424       0.35310884      -0.21614025      -0.71078971       0.00550136       0.86511322