1296
Lattice="-56.9899377606032 -31.127192538134977 36.22197312902963 0.0 18.180918340187 -0.16972753717123917 0.0 0.0 -21.038801776148354" Properties=species:S:1:pos:R:3:momenta:R:3:forces:R:3 energy=-1487777.9557137468 free_energy=-1487777.9557137468 stress="0.004052655705126944 0.0005732552815021372 -0.001751015099247073 0.0005732552815021372 0.0013097020522490153 -0.00021557891343260529 -0.001751015099247073 -0.00021557891343260529 0.0004807334364576332" pbc="T T T"
C      -35.68172621     -29.61644357      21.75206035      -0.69399629       0.05028173       0.70805178       0.94567950       1.68517005      -1.39442714
C      -34.70984698     -29.82533885      22.76506648       0.59595798       0.61487734      -0.38449710      -0.63945023      -1.02991420      -0.08177697
C      -36.82474880     -30.41502462      21.63959874       0.36324344       0.72772210       0.21793274       0.02212888      -0.24705381       0.55850196
N      -35.46670763     -28.62454333      20.77273446      -0.84723157       1.71177850       1.25280960      -2.01570935       0.26615888       1.40561837
C      -34.94295096     -12.75664210      23.47164091       0.86008826       0.33273894       0.52840771       2.26719836       1.41323629      -0.97061457
N      -33.46859752     -29.09389713      22.84431646      -0.83045623       1.28440865      -1.61666497       1.45335471       1.62548596      -2.35578234
C      -36.00746846     -13.64210601      23.21974116       0.49359574       0.07564574      -1.07293200      -1.52569856      -0.60319516       1.56874457
N      -33.99321077     -12.94274333      24.38697798       0.63751295       0.10312453      -1.26029423      -2.00988444      -2.20730347       1.12071650
C      -36.99497755     -31.64082053      22.34197105       1.70859645       1.69390299       0.47931152       3.52125643       3.14310988       1.01588835
N      -36.30931416     -14.58727648      24.30891070      -0.62361832      -0.20243422      -0.51809865      -0.46659763      -0.94890729      -0.85030287
N      -37.86606781     -32.50687645      22.02076443       0.88354947      -0.72895296      -0.85756179      -2.25677190      -2.48378829      -0.91931288
N      -37.89554728     -29.99818223      20.76531000      -0.12909320       0.41950591      -0.55853887       1.06331489      -0.44327207      -1.88126729
O      -33.30519075     -28.14833500      22.00921508       0.42343797       0.28355914       0.40442209      -0.25564583      -1.79167553       2.31885191
O      -32.51589854     -29.41863799      23.58548656       1.77930990      -0.19279799       1.79042099      -1.37099044       0.65525136      -0.79239951
O      -37.15369303     -15.46281123       3.15774823       0.65452975      -0.34952599      -0.59122421      -0.19493610       0.26670953      -1.60233007
O      -35.69840845     -14.52968279      25.35732137       0.96664130      -1.88930922       0.34583350       0.88069325       0.62478226       1.07044425
O      -39.03166528     -30.07851462      21.19065190      -0.19439820      -0.48044439      -0.30486072      -0.13594716       0.20982688      -0.31026776
O      -37.57319780     -29.67537722      19.60148137       0.51497269      -1.27380158       0.71668670      -1.23704329      -0.19174540       1.52047371
H      -36.36859714     -28.22062301      20.49170239      -0.01624379       0.12321188      -0.01642972       0.70027968      -0.58813637      -0.46793420
H      -34.96345401     -27.86625600      21.18608903       0.04528947       0.02145263       0.47759160       0.80107767       0.23928202       0.08558921
H      -34.25852361     -13.69869491      25.00484395      -0.00364286      -0.28939880      -0.64668803       0.63585979       0.12696118       0.10360957
H      -33.04754711     -12.66310223      24.26457226      -0.03025094       0.19580990      -0.07782312       0.29967581       0.64058044      -0.17734013
H      -38.39579204     -32.47742926      21.16083876      -0.33927290      -0.25604570      -0.32278458      -0.04641203       0.35776094       0.39173091
H      -37.83114551     -33.37538986       1.47194766       0.21590498       0.31636215      -0.04403912      -0.31633473      -0.46203443       0.36918496
C      -61.96108734     -31.03434978       7.06337066       0.92525031      -0.15647843       0.47935290      -2.94310898      -0.59219083      -1.87958356
C      -62.68261045     -30.23455467       6.13296425       1.29428542       1.45203121      -0.67657624       0.43220488       2.67186013      -0.29351635
C      -61.02243290     -30.42113247       7.77592514      -0.54837475       1.90082912       0.26845632       5.22566836       1.87726053       3.28852162
N      -62.25740705     -32.28226060       7.33685241       0.02462754      -1.67694904      -1.70305467       0.81601924      -0.87082285       0.78360290
C      -62.25004277     -28.81008995       5.87373891       1.14124596      -0.33090291       0.03624181       1.58884742      -1.42901541       1.27590359
N      -63.92751265     -30.63485177       5.62021669       0.27263342      -1.97587673      -0.87620851      -0.59033570       0.94719413      -1.58543577
C      -60.96468441     -28.39868222       6.48675726      -0.34209391      -0.96793839       1.61238054      -1.18686489       0.12761780      -0.36603669
N      -62.92976863     -27.97195984       5.15398343       0.93158001      -0.67679654      -1.04135588      -0.13935715      -0.34097374       0.01159430
C      -60.41459151     -29.17422182       7.53106271       1.03908818      -0.16227689      -0.20624325       1.78215566       1.83768818       0.12446420
N      -60.40517967     -27.13564477       6.08239128       0.97258340       1.19556847       0.32261261       1.45214529       0.61214423      -1.43498384
N      -59.31373878     -28.68282004       8.17909794       1.00212922       1.84053005       0.09240878       0.76454338       0.31221485      -0.95286260
N      -60.26237417     -31.13474481       8.77937465       0.88546481      -0.20716025      -1.14941845      -1.96963298      -1.63160602       2.60575211
O      -64.54710111     -29.85193912       4.86126488       1.08640095       0.43145933      -0.03726446       0.17927527       0.01770085       0.25485855
O      -64.41703079     -31.70800123       5.85881340      -0.41938908      -1.04368316       0.50947720      -0.00004648      -1.47473684       1.08892787
O      -59.21538915     -26.76976508       6.22978111       1.21329263      -0.27099076      -0.86681376      -1.16196994      -1.52379665       1.42536264
O      -61.10296536     -26.41659906       5.37799931      -0.64860476      -0.08301669       0.48411738      -0.40815862       0.62764439      -0.02060024
O      -59.89423202     -30.53392056       9.81385623      -1.04942940       0.91534918       0.90040817       0.02504789      -1.54430805      -2.15356569
O      -60.28699254     -32.40555154       8.72289061      -0.48640311      -1.34054637       1.36900656       1.66975472       2.18062329       0.42906899
H      -62.88626407     -32.76370437       6.78939397      -0.07130507       0.10560264       0.35831068      -1.86416886      -0.74462457      -1.34169564
H      -61.56744828     -32.80474382       7.89610802      -0.40590623       0.22132983      -0.45060171      -0.67222518       0.26836396      -0.29852899
H      -62.54530610     -27.05702900       4.96169031       0.16791239      -0.06108151      -0.28534575      -0.02695207      -0.05807937       0.17676954
H      -63.81190070     -28.32238775       4.86933766       0.08492895       0.19151785      -0.40133483      -0.89608917      -0.18652932      -0.66503784
H      -58.84894387     -29.05515451       9.03841969       0.03265230      -0.12674404       0.04683481      -1.44005689       0.18427268      -1.53785220
H      -58.78198821     -27.94584553       7.64146837       0.14728508      -0.07124535       0.23874131      -1.10938877      -0.89659689       0.81737827
C      -53.20812722     -39.18325771      -0.80968362       0.01878565       0.07888814       0.46207084      -1.28297485      -0.19522516       0.60827973
C      -54.56111085     -38.62642632      -1.00662016      -0.45035566       0.16384071      -0.10073629       1.89528653      -1.24578582      -1.32683551
C      -52.99011641     -40.48581303      -1.28297185       0.66931381      -0.79405580       0.77509809      -2.73147136       3.41527142      -1.35081353
N      -52.25303497     -38.56503986      -0.09408167      -0.03413383      -1.31467979       0.26128606      -2.43314098       2.04738105       1.30711773
C      -55.42287896     -20.98862855      -2.11121851       0.25913897       0.85902899       0.68597648      -2.39537605      -0.21060255      -1.61098766
N      -54.86026735     -37.46042848      -0.23104989      -0.39194644       0.02256662       0.16314175       0.39190287      -1.13209774      -0.23857359
C      -54.93721491     -22.24628297      -2.82227687       0.51773799       0.14969958       0.48938988      -2.87463460       3.27773151       1.59686730
N      -56.76343771     -20.47091148      -2.31407792       0.23086957       0.52177382       0.46559875       1.84490546       0.11482157      -0.48279466
C      -53.90046369     -41.12287710      -2.12682913       0.76162208       0.88871151       1.71128411       2.79088536      -2.21167354      -1.05976113
N      -55.83296708     -22.79169110      -3.75464523       0.92656558      -0.29699565      -0.46547217      -0.04292994      -0.90555145       0.12427660
N      -53.41819703     -42.34098169      -2.55900174      -1.04461829      -0.35847200       1.02283479      -0.90295818       2.12851016       0.40247961
N      -51.91203224     -41.16802403      -0.84704147       1.79595210      -0.83761682       1.74187022       3.42448903      -1.78684165       4.02434554
O      -55.22136713     -36.43427228      -0.71299143       0.08409961       0.81774821       1.31066600      -0.74933049       1.22066180      -0.94957922
O      -54.65050985     -37.65718587       0.93772993      -0.50439496       0.64834584       0.63128502       0.05890308       0.34461679       2.11810280
O      -55.69971269     -23.90888069     -25.21997414      -0.00107316       0.72340101       0.98492706       1.40787669      -1.76933516      -0.23650008
O      -56.77400713     -22.13532206      -4.10196220       1.29823222       0.19089738       1.51839761      -1.79104976       1.47677994      -1.17462949
O      -52.18355902     -42.11403128      -0.08424975      -0.79894455       0.48662095       0.73313063       0.20588305      -0.38247117      -0.68076900
O      -50.75128978     -40.77575015      -0.93796489       0.98649080       0.06073486      -0.47751996      -0.79577707       0.37425616      -0.87093242
H      -51.37810242     -39.01335412      -0.03857981       0.12649550      -0.10563892      -0.08717736       0.96579547      -0.10247485       0.48203408
H      -52.55427970     -37.80247456       0.61038959       0.17815126      -0.17785964       0.06951753       0.87159085      -2.14037524      -1.32933739
H      -57.28530375     -20.77524019      -3.18753125      -0.00324368       0.10730593       0.05396804       1.53997556       0.21564418       1.85302733
H      -56.93294593     -19.47569886      -2.09712169       0.14137344       0.21223069       0.11043679       0.62063206      -0.97124328       0.15558092
H      -52.63401711     -42.59986705      -2.01057237       0.65014395       0.09045556      -0.27167311      -0.08381178      -1.43363709      -0.37280885
H      -54.05903952     -42.94376557     -24.03713337      -0.20749073      -0.20968913      -0.03869815      -0.47498850      -0.88596553      -0.46834207
C      -39.52880218     -23.27559251      33.06055207      -0.56788294      -0.44983055       0.12632674       0.52431774      -0.57414043       1.80169111
C      -39.98851746     -22.39010860      32.11627115      -0.71043932      -0.54643801       0.02180549      -0.20891267       1.43048149       0.14349545
C      -39.31146534     -22.85721182      34.37426581      -1.19194655       0.97462032      -0.98584039      -1.01518780       4.65255205       2.01895180
N      -39.11611422     -24.45338524      32.69040342      -0.83126512       0.27653359      -0.02425380       0.02269926      -3.42082333      -2.96441943
C      -40.30052026     -21.03971260      32.46310579       0.24718129      -0.30580472       0.05958008       0.31944977       0.33911458      -3.06213350
N      -40.18256429     -22.88023223      30.79548039      -0.61677957      -0.52341592      -0.12989907      -0.78098443       3.37419537      -3.62431641
C      -40.40984744     -20.64604481      33.80392915       1.30641475       0.66317870       0.66147705       0.02173833       0.18066656      -0.48505818
N      -40.42636072     -20.22079914      31.37411742       0.68858585       0.05672057       0.10129465      -0.44968588      -0.67586207       1.88503454
C      -39.71494819     -21.42570492      34.76060970      -1.11126356      -0.33857231       0.31364749       0.69586324      -2.60930757       0.78050799
N      -40.96099839     -19.31507764      34.06949109      -0.35012327      -1.30707280       0.12643946       2.80247300      -2.84601865       3.57747223
N      -39.45038247     -20.91095867      35.96903756       1.01036682       1.20631579       0.05853372      -1.40269974       0.43682655      -2.79663420
N      -38.59655030     -23.62416927      35.34619462       0.66460346      -0.07356850      -2.23368088      -0.09048332       1.09438130      -1.65943923
O      -39.94552786     -22.14991605      29.77360164       0.65968059       0.56244660       0.34831126       0.99493558      -0.24279608       1.85300411
O      -40.76772965     -23.88388628      30.57158154       1.68957819       0.95606972       1.14214195      -0.68852614      -3.07135931       0.95733981
O      -40.99016092     -18.93883429      35.24533068      -1.09864541      -1.04911321       0.82310664      -0.07387791      -0.26346242       0.83352006
O      -41.24398474     -18.60283373      33.20947678       0.86627663       1.09118698      -0.45650991      -1.73759989       2.75790027      -4.19887076
O      -38.50273152     -24.80479969      35.05125741      -0.38655415       0.01938955       0.40237184       0.69403683      -0.41563755       1.58342091
O      -38.06439262     -23.05304405      36.30357574       0.66131703       0.14928713       1.08058610      -0.90812758      -1.29238531      -0.06699090
H      -39.05026975     -25.28661306      33.25421286      -0.17125988      -0.09465862       0.09870713       0.26477189       0.83683641       0.64090137
H      -39.26785377     -24.72427622      31.71149455      -0.08436965      -0.37090393       0.01287297       0.06367268       0.34144180       1.04782268
H      -40.57790022     -19.26093068      31.42558685      -0.14307266       0.47601541       0.10087666      -0.39199653       1.41047926       0.76085111
H      -40.04863081     -20.54062198      30.52839332       0.08557808      -0.16076978      -0.16657552       0.29934313      -0.73414238      -1.17494262
H      -39.01347403     -21.53328890      36.61885792       0.21044420      -0.19335236      -0.31258388       0.24248960       0.32300546       0.56980860
H      -39.92304845     -19.97908828      35.93145395       0.06811908       0.53523813       0.05664009       0.71350783      -0.73478268       1.80139651
C      -15.91220722     -11.78961099       8.05475507      -0.63637179       0.81083094       0.88709687       0.69115362      -2.56158088      -1.49470104
C      -16.00828200     -10.50127234       8.64671694      -0.04149075       2.03271588       0.47948140      -0.39576605       0.60666829      -1.79287309
C      -16.06772300     -11.91678445       6.54189982       0.67768859      -0.91941250       0.17395349      -0.50386745       0.54879596       2.46435212
N      -15.66559779     -12.93910171       8.85750173       1.54473196       0.29538102      -0.04289277      -0.73338289       3.58616133      -0.26562092
C      -16.28193354       8.84739229       7.59426776      -0.44284219      -0.56304116      -0.34857460       0.46830077       0.23866603       2.17032588
N      -15.80698349     -10.29487475      10.02833034       0.35492702      -1.52656114       0.29589764      -0.52881598       1.30844856       3.60225926
C      -16.21832442       8.60408706       6.23790308       0.97668733      -0.47062249      -0.59463463      -0.23104176       0.96541701      -0.99271876
N      -16.57189842      10.10837319       8.10899474      -0.56985324      -0.72274800       1.08880078      -0.34298573      -1.08885495      -3.16218265
C      -16.30315439     -10.80178423       5.70862101      -0.24064170       0.84677995       0.79647473       1.07672508      -0.51426387      -1.03814690
N      -16.41540571       9.75792939       5.31854053       0.08783149      -0.96736413      -0.94244129      -0.57993539      -0.86603954       2.21772643
N      -16.37515396     -10.80754665       4.32708738       0.91969246      -0.01096355       0.41777036      -0.23330367       0.31515191       2.38235754
N      -15.94322384     -13.19400069       5.92131342       0.54632295      -0.32601326      -0.10336254      -0.26074151       2.53797292      -0.96127788
O      -15.55418405      -9.15950521      10.49655491      -0.23297547       0.98030320       0.20576258      -0.18696941      -1.27744820      -1.87048286
O      -15.98090007     -11.21348862      10.87349682      -2.04419533      -0.50593526      -0.25822355       0.36326887       0.05211192      -1.93436614
O      -17.54404782       9.79697452     -16.12319022      -0.31191744       1.56484454      -0.54873013      -2.08590477       0.70785741      -1.25574072
O      -15.58034155      10.57910247       5.12232367       0.15764560      -0.67711852       0.12498595       1.58088949       0.90830596      -0.22837535
O      -15.37975059     -14.03444644       6.52645895      -0.71018259      -0.51590874      -0.82345551       1.19842773      -2.93145759       1.33248382
O      -16.29882457     -13.30370869       4.75182366      -0.61983125      -0.35325057       1.15672144      -0.31010503      -0.68484682      -0.18400323
H      -15.09196971     -13.70960566       8.50666617       0.00259789       0.15349210      -0.23936296      -0.74177361       0.78546381       0.27110425
H      -15.74061240     -12.56864860       9.84644280       0.14300482       0.20067758      -0.31467691       0.58689325      -1.63008701      -1.06113109
H      -17.07693277      10.76597408       7.51687212      -0.06716055      -0.02439437      -0.18891024       0.42459125      -0.57445259       0.13304160
H      -16.46812652      10.39321857       9.03277816      -0.16864443       0.11880267       0.02834815       0.45148856      -0.32808225       1.67878319
H      -16.33712418     -11.70228333       3.82576211      -0.00755204       0.06784378       0.33919265      -0.00539646       1.09371617       0.52793720
H      -16.31025965      -9.88278061     -17.13168475      -0.07657303      -0.18901349       0.08225322      -0.08670806      -1.29455166      -0.36314096
C        8.57537501       3.92951394     -11.32038710       0.50008445      -0.18536698       0.06924277       1.49548463      -0.04008436       2.20076218
C        7.91274430       4.24833940     -12.47538286      -0.66223223      -1.05954568       2.29178738      -1.02296118       3.04708325      -1.61550951
C        9.39335200       4.87307504     -10.72625407      -0.32213071       0.42691621      -1.75278425       0.68560863       0.34732893       2.19699296
N        8.38446424       2.78013202     -10.68909939      -2.15772786       0.56350215       0.59342340       0.46811991      -2.21602645      -0.12542667
C        7.90530648       5.63952304     -12.91196590      -0.15979215       0.33883490       0.65154111       0.30533723       0.84816146       0.56671202
N        7.41275407       3.26963709     -13.31016462       0.40192137      -0.99995732      -0.13991259       0.11536288      -0.52789078      -2.18949934
C        8.72583620       6.55550028     -12.22290299       0.63154884      -0.28850924       0.56542985       0.50267992       1.25228722      -1.02746776
N        7.14625883       6.15044391     -13.86638875       0.41114170       0.91438560       0.86183151      -2.41833859      -4.07552036      -0.44293529
C        9.43371727       6.20815456     -11.07146684      -0.37819534       1.19515600       0.32074462       0.60075038      -0.13374608       0.37404476
N        9.06848678       7.86592792     -12.80749983       0.19404215       0.37535638       0.96912664       0.50299999       0.95834987      -0.54670453
N       10.06129779       7.15659880     -10.38901764      -0.16278560      -0.22988480      -0.87176639       1.32290665       2.07112445       0.22114063
N       10.32284341       4.51591948      -9.54244026       1.50778408      -0.30665271      -0.95024288      -2.24372198       2.61296785      -1.59375333
O        6.73450186       3.56683337     -14.31145980       1.16619483       0.35379753       0.98420587      -0.46022215       0.09014823       0.70819898
O        7.81583099       2.12597091     -13.16274086       1.06704878       0.47316400      -0.70172314      -0.37324506      -0.85629258       0.41985523
O        8.32085384       8.50784498     -13.54830862      -0.09504631       2.35686099       0.32480819      -0.03752734      -1.15840985       0.55441268
O       10.20517395       8.32937494     -12.56131300       0.41173594       0.15030426       0.00868488      -1.20651132      -0.39197198      -0.59226092
O       10.20007780       5.21955569      -8.52883360      -0.59149349      -0.90679316       0.87207352       0.74054361      -2.07744655      -0.96966982
O       11.16230716       3.72342513      -9.86183803       0.40400164      -1.14736457      -0.66195860       0.80634229      -0.84273589       1.41383044
H        9.01575532       2.52152122      -9.91929337       0.06364456      -0.41677579       0.00687103      -0.59039863       0.21982742      -0.86318323
H        8.16306092       2.05783042     -11.38797334      -0.20310340      -0.12687966       0.11574192       0.03274817      -0.04718816       1.04162101
H        7.31861744       6.98706214     -14.33405877      -0.22326462       0.27778634       0.17168548       0.08140117       1.43266463      -0.38042491
H        6.41677141       5.46662590     -14.18157445       0.16843429      -0.04486259       0.03083654       1.30588407       1.34005600      -0.21783566
H       10.75087940       7.02703378      -9.65787122      -0.27679359       0.19113282       0.04451723      -0.74440958      -0.66092675      -0.25892710
H       10.22730830       8.01863132     -10.95700533       0.30882014       0.23313655       0.19150452      -0.02735817      -1.21107476       1.09569903
C      -36.73550381      31.08759592      27.51317034      -0.27228852      -0.15802969      -1.19801076       0.10007129       2.51733843       1.67830464
C      -37.00292128      29.81863595      28.17415803      -1.10199228      -0.41918603      -0.61308051      -0.67795845       0.69110359      -1.07087149
C      -35.89371160      32.13078907      28.18961398      -0.83015790       0.10970172      -0.14636482      -0.63456733      -2.25144369      -0.48610342
N      -37.37459663      31.51998528      26.45986471      -0.70671782       0.10976630       0.12601227       2.13598082       1.38951453       0.01274466
C      -36.61907343      29.65600659      29.51663838       0.34849332      -0.07888161      -0.08251987       1.55045147      -0.44661220       1.97551207
N      -38.07924213      28.96682563      27.65548811      -0.16757907      -0.09564973       0.91667816      -3.27879949       0.54354781      -0.22123043
C      -35.58957869      30.55422160      30.09954991      -0.33619596       0.11352194       1.10306583      -2.70602700      -1.99018570      -0.72295407
N      -37.15670993      28.67112678      30.25557883       0.33366634      -0.56319032       1.46367820      -0.31255597      -0.87886363      -0.32121653
C      -35.26723200      31.78908024      29.43711121      -0.07767125      -0.26614479      -0.03036206      -0.22643853      -0.38274646       0.27461936
N      -35.23358327      30.30495338      31.46603839       0.34198166       0.47596187      -0.19929831       0.87557233       0.30769542       0.18833050
N      -34.45315591      32.56323140      30.07941193      -0.04250214      -1.15808432       0.59509962       1.13030235       4.17595868      -2.77383972
N      -35.64359988      33.36897916      27.55217431       0.10022562       0.01629525       1.77244827       3.17552798       2.15442243      -0.56213937
O      -38.33003154      27.82672377      28.11786569      -0.11462052      -0.89654293       0.20832274       1.05841968       1.79604619      -0.45247182
O      -38.91849113      29.45940659      26.85238980      -0.25137699      -0.43202724      -1.42052995       2.26037955      -0.78515744       1.04911530
O      -35.70012300      29.39287713      11.11924020       0.40855060       0.79696816       1.71887025       0.33110575       0.83561540      -0.82610090
O      -34.35977256      31.05656208      31.93344478      -0.87176791       0.89717742       0.71868772      -0.26668054      -1.01874788       0.90529674
O      -36.06990066      33.68545761      26.42311534       0.78961080      -1.39504508       0.57168063      -0.36897445      -0.83004437       1.47111878
O      -34.77301830      34.16137476      28.06869761      -1.49455666      -1.25990043      -1.21959780      -2.18711596      -1.88423055      -0.45431528
H      -37.29428958      32.45206199      26.06241844       0.08433219       0.07020174       0.03119800       0.76280064      -0.16547883       0.69079221
H      -38.13753179      31.05370129      26.19852602      -0.19990364      -0.15476892      -0.05376162      -3.35565188      -2.65817100      -1.42907957
H      -36.79362429      28.34068978      31.16561451       0.39664451       0.13654333      -0.16170023      -0.06666339       1.16893779      -0.97970437
H      -37.81866690      28.05939661      29.76676849      -0.40643550       0.09736483       0.38219589       0.62319903       0.30377432       0.24785310
H      -34.09541306      33.43534190      29.63154906      -0.06057266       0.06408726       0.02706772      -0.96048270      -1.29874899       0.19703434
H      -33.99714174      32.25116072       9.83477503      -0.16979427      -0.00297120       0.18001696       0.58323868      -0.94746724       1.84324408
C      -80.23963020     -26.37207935      30.92243081      -0.63539824      -0.65303368       0.93887101      -3.09538190      -0.54709550       2.42544017
C      -79.22765845     -27.25523600      31.29255663      -0.27953933      -1.25158947       0.31404683      -1.61808879      -1.81390731      -1.39761546
C      -79.99696192     -25.02315466      30.63444722       0.28060224       0.01141025       0.19466488       1.95961528       1.25041786      -0.58837518
N      -81.57742531     -26.68663448      31.19217595      -0.47414047      -0.76797946       0.65874239      -0.15204603       0.13180640      -0.60897120
C      -77.85068364     -26.96252365      31.05699781       0.69951028       0.87609940      -0.65824006      -1.81189393       0.33402319       0.76628165
N      -79.74962820     -28.69080760      31.41223801       0.83020488       0.72198571       0.36023098       0.21276655       0.30831848       3.39440213
C      -77.63128494     -25.62803940      30.77949077       1.49455315      -0.21294832       0.16273408       1.79825954       3.60986956       0.72530800
N      -76.87698902     -27.81655356      31.26559803       0.99249324      -1.51468795      -1.42836173      -0.36309308      -0.37057641      -0.04708659
C      -78.63763949     -24.52505240      30.69018395      -0.54694267       0.70329872       0.62622182       0.46285606      -2.12298141       0.13052580
N      -76.18157390     -25.20153719      30.84662279       1.82228660       0.42752862      -0.72946035       0.75529805       0.31910538      -2.15064682
N      -78.27012345     -23.24085741      30.67551773      -1.36107607       0.35005852      -0.89160988      -2.25151355      -0.20083589      -0.59704515
N      -81.08502663     -24.20720030      30.18518620      -0.92059079       0.35020803      -0.20473149       0.47596993       1.62920365      -1.01879525
O      -79.06399551     -29.56956588      30.97107734      -2.66702409       0.22153804      -0.81936804       1.24558891      -0.67193200      -1.54112956
O      -80.69184538     -29.00150248      32.18270318      -0.12763940       0.50376527      -0.01797375       0.69507477       1.55929413      -1.35526723
O      -75.87809883     -24.06075585      30.51139358       0.19695564       0.83134936       1.18779805      -0.82858542      -0.00508115       0.97787279
O      -75.23813889     -26.00303062      31.00566145       1.27090453       0.76533637      -0.87896782      -1.24508897       0.04380888       0.90500701
O      -81.03915989     -22.95526278      30.33440200       1.00496943       0.60818852      -0.10301678      -0.00182824      -2.23100673      -0.06204225
O      -81.96005486     -24.77133175      29.52672193       0.49294471      -0.66408608      -0.80952794       0.06789814       1.02445583       0.55957771
H      -82.31240427     -26.16220161      30.71723116       0.03622561      -0.24437699      -0.02255269       0.88263987      -0.29448477       0.22419837
H      -81.93138075     -27.41268841      31.81292794      -0.18297725       0.10659611       0.18050091       1.15173661       0.07374773      -0.58586753
H      -75.93525009     -27.51819379      31.18261543      -0.11948604       0.33751788       0.18742233       0.66539339       0.24181320      -0.00159654