1296
Lattice="-61.44091427697071 -21.91025245791794 18.096435179937394 0.0 15.593552596914462 6.00012973456043 0.0 0.0 -21.583540285842513" Properties=species:S:1:pos:R:3:momenta:R:3:forces:R:3 energy=-1487779.137497721 free_energy=-1487779.137497721 stress="0.0004120504601285028 6.36484564442812e-05 0.0006371236086116272 6.36484564442812e-05 0.001157316756673173 0.002827613513976551 0.0006371236086116272 0.002827613513976551 0.0031971992139574047" pbc="T T T"
C      -41.42229938     -20.99025866       2.81152160      -0.63635139      -0.38894916       1.37711727       1.72569963      -1.20212220      -2.41266138
C      -40.00787160     -21.06116788       3.00420754      -0.88301128       0.59065651      -1.36653265       1.50185858      -0.01435251       0.73824985
C      -41.80563006     -21.54487963       1.54753402       1.12051919      -0.37676006      -0.66102094      -0.01507071       0.58796309       0.00870579
N      -42.24981766     -20.59059846       3.72356578       1.26229667      -0.69507468      -0.00998674       2.29661938       0.23876676       4.46628345
C      -39.04429641      -5.55049099       7.90242684      -0.17344204      -0.14511384      -0.13705005       0.08336289      -0.14479278       2.32218603
N      -39.50741533     -21.06914936       4.43717070      -0.58165928       0.83597843       0.60180958      -0.08742650       1.79815565      -1.09710212
C      -39.59152384      -5.72276790       6.57693275      -0.47896503       0.77541367       1.55923301       3.96881115       1.01197869       0.73732628
N      -37.69655747      -5.49357891       8.28989237       0.22050293       1.04743973      -0.50065391      -2.55282260      -1.41475797       0.74898993
C      -40.88771308     -21.69524065       0.39482479      -0.27109873       0.64810784      -0.44107509      -2.94031570      -1.78928960       0.47764521
N      -38.56760799      -5.68092716       5.48657688       0.12582247      -0.02176901      -1.27614864      -2.89742875      -0.19671139      -1.44431748
N      -41.30073885     -22.30193691      -0.72529633      -0.70005510      -0.32060595      -1.31343730      -0.27189295       0.14046273      -0.93275935
N      -43.16680426     -21.95928229       1.55485816      -0.70313785      -0.33710637       1.78678416      -1.59916867      -0.26114167      -3.47531977
O      -40.10770740     -20.34921319       5.27131142      -0.98136181       0.19460337      -0.88679328       0.59600665      -1.37700669      -0.87487889
O      -38.47132945     -21.66111820       4.71914233       0.77267567       0.05780423       0.05605869      -0.74635995      -0.12987574       0.13767288
O      -37.53609872      -5.15010513     -15.80364602      -0.76558767      -1.29516117       0.50521975       1.18798919       0.11221436      -0.55654539
O      -38.86312400      -6.02804587       4.29677997       0.26307474      -1.14139758       1.10265126       0.60282880       0.42366432       2.60841211
O      -43.48481755     -22.84901756       0.71225193       0.09418309      -0.20852940      -0.26148184       0.40658392       0.91252303       1.49551890
O      -44.04868191     -21.36407948       2.18613600      -0.32398843       0.68482856      -0.59496390       0.89612996      -0.92784913      -0.20360410
H      -43.21611759     -20.74870688       3.74819854      -0.43022704       0.06890957      -0.36464370      -1.18993691      -0.25086983      -0.63846243
H      -41.73278840     -20.60460216       4.66823720       0.21302911       0.17097960       0.03571820      -1.45151276       0.85690552      -1.58914224
H      -37.05888756      -5.39675215       7.52666561       0.27054325       0.16820562       0.03889451       0.44373949      -0.49651179       0.17743303
H      -37.54598262      -6.09189717       9.16784724      -0.23701639      -0.17402657      -0.03572501       0.16923012       1.76645975      -2.15907215
H      -42.25904060     -22.65311247      -0.70527119      -0.17659158       0.36353249      -0.09563765       0.60760458       0.12782830      -0.11556610
H      -40.70430472     -22.39227745     -23.16779778       0.18235358       0.23995163      -0.10506843      -0.68832688       0.28430644       1.56607915
C      -63.11659742     -15.51835245      -7.75925928       0.65292171      -1.01435567       0.13940830      -0.71252078      -1.82258764       0.02805726
C      -63.64721862     -15.33397136      -6.49460462      -0.40508908       1.87143820      -1.07030470      -2.23768136       2.00108386       1.81287724
C      -62.84438606     -14.47126340      -8.55060633      -1.29681004      -0.27777824       0.75395000       1.20747028       5.26833647      -1.34767001
N      -62.86330149     -16.68857600      -8.29281282       1.70679191       0.27319222      -0.92684930      -0.93176061      -0.52610740       1.80672729
C      -63.86908796     -13.92757214      -6.02445095       0.18439080      -0.92458584      -0.31999807       1.01134158      -3.16685879       0.10823435
N      -64.34977983     -16.39850953      -5.82080741      -0.58538230       0.56879792      -0.13369900       1.92710129      -1.91870083      -0.34221792
C      -63.38845996     -12.86300348      -6.78956717      -0.42682506      -0.11736700      -0.60670049       1.02077315       0.93285407      -0.78693293
N      -64.34965935     -13.79639086      -4.81170025      -0.07176998      -0.77012260      -0.18208882      -0.86836403      -1.07766510       0.98858376
C      -62.68072289     -13.13455147      -8.04262485      -1.37034342      -0.13332261      -0.57579028      -1.54024843       2.72891081      -0.98020854
N      -63.50367597     -11.48819215      -6.21769448       0.33330791      -0.32141773       0.26344690       0.03337148      -2.86257116       1.15401313
N      -62.15596991     -12.03794019      -8.76831481      -0.39026286       1.43766584       0.47211770      -2.40926189      -1.53158095       4.00238956
N      -62.53918951     -14.61871688      -9.96436845       0.21185745      -0.74124287      -0.51402584       1.34170352      -1.17596185       0.59351184
O      -64.26286375     -17.56143691      -6.37458742      -1.04145017       0.63709956       1.26680836      -0.93613875       2.55823066       1.65960214
O      -64.83784936     -16.24663289      -4.68935116      -1.57296946      -0.76480671      -1.42621619       0.00240332      -0.81946685      -1.59380757
O      -63.77227850     -11.40410548      -5.01228729      -0.10792865       0.42859742      -0.37164073       0.18997805       0.74080100      -0.44672129
O      -63.33929323     -10.52660177      -6.89253577      -0.01395130      -0.87226529       0.89208459       0.30474189       1.52923837      -1.47841550
O      -63.11808687     -15.41041602     -10.69208846       0.35145728      -1.63987319       0.28247857      -0.24569645       0.62448844       0.39695764
O      -61.53355185     -14.00651794     -10.29107911       1.16902865       0.33629709       0.52056844       0.10325513       0.25208042      -1.14756260
H      -63.23451664     -17.44452206      -7.77916649      -0.06325949      -0.25548632       0.03090039      -0.00513266      -1.39080048       0.11417713
H      -62.31969763     -16.68529401      -9.07701817       0.14938684       0.21159099       0.13250785       1.16359732      -0.76210742      -2.16169209
H      -64.28751924     -12.92258304      -4.40832258      -0.04039260      -0.13687597       0.25351450      -0.02913191       2.02477660       0.71120401
H      -64.55570701     -14.56437000      -4.17928609       0.07633583       0.19795943       0.22309753       0.27323047      -0.01798322      -1.02178816
H      -61.77172074     -12.20713238      -9.61586944       0.00445865      -0.27375072      -0.06302180       1.33018591      -0.82953605      -2.71193154
H      -62.52216222     -11.10155692      -8.63722022      -0.40089834       0.07999767       0.12609976       0.07607497      -0.64509891       0.55229050
C      -58.55214940     -20.95509734     -25.09963187       0.07611583       0.84796250       0.17263032       1.95455109       1.49944669       0.60427987
C      -57.16125677     -21.39198940     -24.90436218      -0.58870028       0.29802261      -0.01644736      -1.66511164       0.54326736      -0.08006703
C      -59.50812728     -21.97809069     -25.24542491      -0.91353433       0.58056509       0.13127725      -2.19613923       2.73486790      -0.24833517
N      -58.86490260     -19.63570189     -25.05358029      -0.70323871       0.44252962       1.98912159      -2.75468007      -0.43825671      -0.24285897
C      -56.88676692      -7.15970756     -18.59689541      -0.01297477       0.27951036      -0.66578880       0.24505811      -0.63317099      -0.12494986
N      -56.11761407     -20.41006336     -24.87514579       0.44458038      -0.33895876       0.69258255      -3.12500534       0.01562574      -1.45614606
C      -57.84069683      -8.15377315     -18.88279821       0.66514781      -0.83197861       0.53640927      -4.39236062       0.67641104      -0.13468481
N      -55.75432586      -7.55273160     -18.07272894       0.15062843      -1.10685346       0.39597746       1.56870521       1.61986773       0.50329246
C      -59.24716975     -23.31559607     -25.13047548       0.98219246      -0.46902219       0.29931157       0.28696497      -3.13060626       0.13108222
N      -57.69370774      -9.52924243     -18.60886177       0.53540383      -0.94081175       1.32502266      -3.80853057       0.19979244      -2.25449480
N      -60.26762991     -24.24571713     -25.15068939      -0.54962923       1.19172032       0.91104047      -0.37675341       2.39376132      -1.59940384
N      -60.96852687     -21.47946360     -25.47291551       0.31106388      -0.06263630       1.28658618       1.56585355       0.14926590       0.61172926
O      -55.04852716     -20.72037587     -24.45496891       0.72339671       1.45811841      -0.14550611       2.98621153      -0.20391761       1.19203896
O      -56.35837610     -19.31324931     -25.37088602       0.36024599       1.05100400      -1.10516265       0.44026282       0.21514634       0.32744843
O      -58.67808428     -10.31516389     -40.49280404       1.07503921       0.61898051      -1.06888432       3.12094591      -0.17873447       1.07122416
O      -56.68842010      -9.97571578     -18.22012745      -1.87100351      -1.48116324      -1.30599011       3.39139208      -1.56728788       1.33844311
O      -61.31809096     -20.48528881     -24.74220765       0.74559469       0.65612421       0.94448124      -0.16943054      -3.34646768      -2.91403972
O      -61.60178674     -22.08256079     -26.37545658       0.91352998      -0.11801312      -0.30973343       0.43995913       1.89806764       2.65368377
H      -59.89274314     -19.38792141     -25.05520939      -0.05949870      -0.16484832       0.02211268       1.83553195      -0.69151121       0.00364903
H      -58.26123023     -18.83161097     -24.99485114       0.14091672       0.09015046      -0.10968023       0.71580755      -0.91091855      -0.17929023
H      -55.59454035      -8.51958291     -17.85304889       0.01171153      -0.30506837       0.04025627       0.27427241       0.08510680      -0.10475063
H      -55.10345176      -6.75718959     -17.93720958       0.09178941       0.15681130      -0.43853318      -0.22631137      -1.37829471       0.04169556
H      -61.12506259     -23.83363848     -25.66963737       0.16348039      -0.11536065       0.28731259       1.79816739      -1.59608032       1.39938130
H      -59.84503286     -25.24240607     -46.69235217       0.15123357       0.05185402      -0.24852474      -1.79187987       2.21797510      -0.15193822
C      -40.55031148     -19.21990649       8.73745586       0.01125769      -1.31823636      -0.60656224       0.12466277       0.66771869      -0.84768132
C      -39.83106549     -20.37339014       9.06271805       0.32013560       0.45865984       0.31270664      -3.39529192      -1.94381403      -0.01377684
C      -39.84318631     -17.99691269       8.81468443      -0.99527525       0.30635362      -0.82559872       0.47558588       1.79752558       0.49471600
N      -41.80835538     -19.24110361       8.28437265       0.25804290       0.20573593      -1.60816392      -0.47657605      -4.01982923       0.35716391
C      -38.48878054     -20.51550270       9.26526677      -0.57915265      -0.17619619      -0.27854210       1.49116125      -0.47236864       0.50360155
N      -40.75498378     -21.63154192       9.11012051       0.23056498      -0.42401259      -0.53011803       3.93568374       2.42313778      -0.08266712
C      -37.75997781     -19.31268181       9.11505023      -0.44233982       0.39138209       0.75854329      -1.04585089       1.91519662       0.56169949
N      -37.83400926     -21.69518482       9.47997318      -0.24830072       0.07490070       0.57313554      -0.54171225      -0.19372368      -0.33679231
C      -38.38604011     -17.99530215       8.99486320      -1.27841740      -1.10342971       1.63204362      -1.39210553      -1.68700899       0.01586233
N      -36.37641213     -19.32935886       9.36091187      -0.88240225      -1.57946300      -0.00197793      -0.86403155      -1.05449431      -0.94085819
N      -37.75855087     -16.82738640       9.10989372      -0.25150810       0.29774727       0.28840190      -3.85678327      -0.00460636      -0.64119172
N      -40.63802712     -16.67938934       8.96392912      -0.56746296      -0.58764308       0.87095080       0.65201531      -0.03869346       1.98991305
O      -41.51991365     -21.79866771       8.22891845      -0.25211464      -0.44911883       0.43594140      -2.71377429      -0.30106865      -2.58940035
O      -40.54356509     -22.41750129       9.96070886      -3.17725508       0.48310391       1.01556953       0.56279896      -1.86867714       2.58585175
O      -35.70733697     -18.56588304       8.71191691       0.91664833      -1.48086058       1.09106973       1.50480415       1.65567678      -0.26366988
O      -35.91268250     -20.20528312      10.06935921       1.00485022       1.09066462      -0.40963302       1.21471976       0.23057144       1.09591367
O      -39.99059402     -15.68047190       9.40651136      -1.53003456       0.61900093      -0.56583826      -1.36726445      -1.44212589      -1.79037912
O      -41.88304444     -16.63370873       8.91775102      -1.67920925       1.06348168       0.84166442       1.93314337      -0.54603385      -0.79371349
H      -42.22002854     -18.38114343       8.16000461       0.29992381      -0.14102968      -0.16957187      -1.29312363       1.78747089      -0.26960116
H      -42.32307053     -20.18414068       8.13954665       0.14236738      -0.02951762      -0.19009137       1.50028930       2.62701088       0.29884779
H      -36.84238338     -21.71250628       9.55720095       0.26503059       0.26464385       0.20007752       0.26068448       0.53523401      -0.29046966
H      -38.17946530     -22.50729303       9.94883652      -0.12488160      -0.25141126      -0.13021665      -1.35885510       0.14604797      -0.10538847
H      -38.35723072     -16.07338976       8.76962528      -0.06771494       0.06914833      -0.11252081       0.71636814      -0.16401188       0.86132474
H      -36.83628978     -16.70243176       9.02671021      -0.11166446      -0.20052208       0.07693322       3.75274007      -0.02275538      -0.32475973
C      -18.95758360      -7.27916914      11.39036095       1.40558348      -0.87200009      -0.13531657       3.28788025       2.52214334      -2.67618142
C      -19.76184193      -8.38057347      11.56768391       0.06045718       0.28113074       0.61748456      -2.37634312      -2.66554885       1.02766275
C      -18.79019974      -6.34636986      12.42322014       1.15691961      -0.55266220      -1.86046600       0.80027624      -0.42855445       0.55855305
N      -18.27166936      -7.02427486      10.22098954      -0.15308535       2.21633151       0.47872993      -1.54877385      -1.87264226       0.56385341
C      -20.64311406       7.04818641      18.68589484       0.44058461      -0.56457866       0.48012876      -1.16874173       0.75800868       1.00732779
N      -19.75146833      -9.42562961      10.56798592      -1.04102080       0.80038015       0.05346701      -1.49532855      -0.93491460       0.74619311
C      -20.60388347       8.12521761      19.71704137      -0.06433182       0.26587842       0.30412205       0.62008436      -1.46688552      -1.69649954
N      -21.57606112       6.07246787      18.77681993      -0.12082149      -0.76053673      -0.95381241       1.22539699       1.68314300       0.79411811
C      -19.62424043      -6.44143496      13.56869080      -0.36587884       0.15684609       0.72470040       0.85711512       2.21883807       1.39289277
N      -21.38751628       8.05827644      20.88737402      -0.46208956       1.96039762       0.67464001      -1.04658009       2.07080622       1.70912185
N      -19.46406804      -5.44992204      14.47299131      -1.09679242      -0.53767484      -0.93376358      -0.47309726      -0.60853344       0.72631045
N      -17.57510412      -5.44302642      12.42225397       0.57088586      -0.18587788       0.35347971      -2.77462251      -0.00185276      -1.45476670
O      -20.36882711     -10.49430441      10.60762114       1.30944000       0.18695769      -0.84388258      -0.44851222       0.67704883       1.58440527
O      -19.09416452      -9.20250594       9.60904273      -0.04846077      -0.90936085      -1.17805883       1.85966123       0.16485681      -2.97990422
O      -22.07913257       7.07492426      -0.44759027       0.04994382       0.63329742       0.03709973       0.68700686       0.70406341      -0.06664850
O      -21.42054487       9.10094847      21.66064539      -0.31500195      -1.02147819      -1.86326559      -0.02368918      -2.87031670      -1.67050181
O      -17.12204066      -5.08995546      11.31212770      -0.86444558       0.87602242       0.23358124       0.28076513      -0.07377389       2.37027026
O      -17.24335661      -4.99770241      13.50579402       1.23854776      -1.72297292      -0.38014759       1.48431869       0.06158025      -1.01225275
H      -17.56216897      -6.35426205      10.14923375      -0.14291224       0.06038443      -0.07474544       0.53383222       1.27679240       0.64320889
H      -18.18387397      -7.78379526       9.57206356      -0.32378338       0.48475548      -0.00289195      -0.45337621      -0.04656525       0.09125273
H      -22.20855953       6.05458232      19.54362839       0.02504500      -0.32347406       0.09173107      -0.11722142       0.46649447       0.73454438
H      -21.72621226       5.37014300      18.12528016       0.10503707       0.02165614       0.47843241       0.50045227      -0.95927226      -1.65389103
H      -18.56927122      -4.96938014      14.48585026       0.07640425      -0.01061504       0.15884265      -0.67311648      -0.07687582      -0.12610241
H      -20.04170140      -5.43892732      -6.27220984      -0.03500925      -0.12313817      -0.15545276       0.07672338      -0.30904313      -0.65062124
C        8.11916534       8.72524064     -13.87230736       0.88591461       0.31490779      -0.54114214      -2.50981318       0.47205488       0.55177720
C        6.91107732       8.66172013     -14.72744073      -1.33436857      -1.27805845      -0.20274019       3.22230899      -0.72331587       2.16119817
C        7.86257619       8.87267171     -12.46316181      -0.37623331       0.06877257      -0.04484454       2.58879699      -1.23224088      -1.90319320
N        9.34016181       8.76972540     -14.38483631      -0.69922894       0.35750970       0.88152854      -0.54888289      -1.03547113       0.65197262
C        5.59738675       8.79623997     -14.22138568      -0.03884245      -1.25377685       1.52642441       3.29640289       1.39845179       2.18045241
N        7.18955890       8.42960493     -16.12734533      -1.11631824       1.17584417      -1.01570595      -1.04651882      -0.22165491      -0.01450462
C        5.41748544       9.20388536     -12.86297141       0.01750837      -0.72262911       0.62655595       2.85223303      -0.24470599      -1.41078097
N        4.67697049       8.70551787     -15.07243692       1.50981872       0.09742234      -1.66055112      -7.06641024      -1.58266407      -4.85907650
C        6.59211792       9.13021400     -12.01051292       1.40605444      -0.62779150      -0.61158370      -3.10317471       0.75821779       3.38234375
N        4.11651871       9.42287995     -12.38264579       1.54978754       0.43231601      -1.21585812       0.17366215      -2.23764438      -0.63863918
N        6.41413893       9.33411172     -10.68004286      -0.50907819      -0.77240870       0.11213639       0.04800716      -0.55443062       0.33187980
N        9.07017685       8.92789030     -11.62825890       0.90575161       0.56948288       1.48830818      -1.03658223       2.54588922      -0.77870817
O        7.91572327       9.20166011     -16.66861558      -0.38622909      -1.81067643      -1.80784674       2.34682128       2.44635464      -0.62647644
O        6.72062663       7.53004352     -16.78285738      -0.91957017      -1.05914159      -0.43871175      -1.59368812      -1.63321199       0.51605300
O        3.91859023       9.00559302     -11.26973020       1.03840239      -0.29553762      -0.06287369      -0.79023923       0.20701591       2.71321769
O        3.20259493       9.75368226     -13.10233862      -0.71093369      -0.20677233      -0.27580238      -0.44887214       1.01981266      -1.04152230
O        8.96034590       9.57140709     -10.56954199       1.52273430      -0.13823971      -0.76792296       1.21059171      -1.48006384      -0.53286413
O       10.15556022       8.60754684     -12.14249594       0.81869985      -0.71823803       0.00683642      -0.79298072      -0.48833129       2.10697893
H       10.21984685       8.73942404     -13.92591226       0.10667535       0.16731454       0.02289949      -0.17758416       0.05181637       0.67167888
H        9.30846848       9.14004170     -15.24991851      -0.24066232      -0.02634493       0.44384971       0.47489490       1.02472091      -3.56054183
H        3.64919385       8.91654652     -14.88848881      -0.24291340      -0.01169371      -0.07199625       2.36474913      -0.12086062       0.22901229
H        4.77152826       8.15747173     -15.96058567      -0.08324312       0.30634433       0.21949747       0.38831762       1.02108927       1.47596587
H        7.21846234       9.34513680     -10.05245848      -0.06367483       0.06206052      -0.29300282      -0.51110025       0.18834816      -0.71330048
H        5.49890823       9.48777839     -10.25614369       0.27105327      -0.34365057      -0.21589661       0.66815184      -0.23703747      -0.84933077
C      -37.58889176      18.72214347      25.39353796       1.06646439       0.40930570      -0.46191953       0.17644935      -0.98999193      -1.49446778
C      -38.43565026      19.47418248      24.59432044       0.25156211       0.36628460       0.44577718      -2.25215475      -0.35531899       1.16958654
C      -38.01218630      18.53722522      26.71663771       1.14395030      -0.41594298      -0.32211727       0.78400700      -2.24285947       2.74742201
N      -36.54858162      18.06990927      24.84006618       2.44011168       0.96244959      -2.14859125       1.18690118       0.43776244      -0.40074256
C      -39.76978759      19.92404691      25.02927996       1.43444780      -0.02557409      -0.19063526       3.75840659      -0.59664176      -0.23370977
N      -38.27562933      19.42494947      23.16140603       0.73782548      -1.35006426       0.44235277      -0.06304636       0.00561911       0.33306775
C      -40.08985728      19.76819189      26.42474267       0.34880219       1.06921799      -0.76915568       0.35989366       0.16948148      -1.83470012
N      -40.51982315      20.55812269      24.16747078       1.21614973      -0.48284870       0.37548748      -0.17829740      -0.16753420      -1.41596956
C      -39.20433798      19.03691827      27.29091958      -0.44402060       1.57787365      -0.18303888      -0.67630621       1.32002034       0.09893319
N      -41.34478940      20.32637196      26.78242980      -0.09747069      -0.13665465       0.36241147      -0.32224351      -0.65230146       0.69696580
N      -39.54504560      18.99393751      28.60975336       0.64992361      -2.05744533       0.42190035       2.28174614      -0.43621422      -2.65139399
N      -37.27666336      17.46013441      27.48077225      -0.39701012      -0.61417360      -0.57074985       1.95774460      -0.71964870       0.40078785
O      -38.18480465      20.51119468      22.65827172      -1.81590673       1.46724851      -0.91865098       0.39377243       1.26597599      -1.16671054
O      -38.34496411      18.37398487      22.55802006      -0.06990235      -0.95741664       1.07791143       0.24050181      -0.46769398       0.06465997
O      -41.62365367      20.44412499       6.38284998      -0.46584702      -0.51074202      -0.79482004       0.32763361       0.00973561       1.31709011
O      -42.18733092      20.64126131      25.95071943       1.62728364       1.79452458       0.01283330       0.06311866       0.03376587      -0.19221513
O      -36.06305269      17.18113282      27.14051987      -0.45199999       0.70887062      -2.26242686      -3.21563972       0.88621557       0.99813966
O      -37.79258993      16.83206978      28.42819058       1.40727863       0.12023225       0.01608106       0.38501233       1.73795789      -1.80276899
H      -35.80768427      17.66893050      25.43556815       0.25943897       0.01051913       0.31527247      -1.04869604       0.39172276      -0.27630506
H      -36.25736585      18.28640941      23.88513476      -0.02126682      -0.13412987      -0.22222164      -0.50963703      -0.12798257       0.68148175
H      -41.34907269      20.85080619      24.66165262      -0.13813761       0.37070626      -0.05290612      -1.17028566       0.45421455      -1.17979365
H      -40.39046571      20.50165109      23.13488952       0.00249265      -0.24162708      -0.11854638      -0.11653532       0.21695953       1.44365278
H      -39.11591018      18.22724131      29.06271005      -0.14746011       0.10215348      -0.29138827      -0.13568666      -0.72204517       0.98969510
H      -40.47516261      19.27508165       7.05226346      -0.04124546       0.11627957       0.39372025      -1.74433899       0.17139211       1.55526380
C      -87.59723000     -22.17010619      11.74355772       0.70806793      -1.36659460       1.05586764       0.64885307       0.42631555       0.17199543
C      -88.63109593     -21.96982480      12.63992008      -0.05900856       0.17482434       0.26770088       0.73010700       0.62510388      -0.42926386
C      -86.78668576     -20.99725484      11.48436476      -0.80483906       0.24473338       0.51418024       0.97083085       0.72687471       1.13247865
N      -87.26770596     -23.41353449      11.25827803      -0.16619816       1.43536412       0.06942504      -1.98133152       0.61639037       1.45075117
C      -88.66445781     -20.86849979      13.52836289      -0.27198738      -0.51827466      -0.43978915      -1.50804337      -0.35342922       0.34640945
N      -89.26748342     -23.16369420      13.10922931      -0.11667081       0.65288394       1.37763900      -1.26616199      -1.97279803       2.35677212
C      -87.62908024     -19.94481516      13.49019431      -0.61764231       0.11411245       0.64057766       0.70894248       1.51045045       0.89537014
N      -89.77188466     -20.79480077      14.31401618       0.92368853       0.77473335      -0.56868227       1.01681696       0.29768977       0.18062742
C      -86.67940055     -19.88464424      12.46710761       2.00286778       0.42827479       0.12257615       0.44735470      -0.87714788      -2.71835810
N      -87.68619335     -18.76341166      14.39179361       0.06840871      -1.14056601       0.14863719      -3.47915468      -1.01581020      -0.82725499
N      -85.83218565     -18.81328179      12.24256670       0.08138778       0.48500562      -0.57054099      -3.13392463      -3.48829490       0.97605975
N      -85.95092585     -20.97356287      10.32823887       1.05456696      -0.95003076       0.22188406      -0.84473624       0.58519907      -1.28065062
O      -88.74129630     -23.69598426      14.06962680      -0.40332662       1.34795906       0.52336402       0.93498437       0.10386706       0.04578958
O      -90.33385306     -23.61356018      12.71415934      -1.09613706      -1.05455948      -0.22203261      -0.15487778       0.99894569      -1.50146155
O      -86.68352561     -18.30485257      14.89277417       1.19969215      -0.92537893      -0.80805799       0.14714015       0.39058175       0.01560594
O      -88.85772021     -18.34053820      14.54803055      -1.84125678       0.15026146       0.01138771       2.59892841       0.07732624       0.43316965
O      -86.08789187     -21.89580132       9.49993010       0.08753467       0.14533280       0.08941986       0.68519545       1.04025027       0.79291535
O      -85.26018229     -19.96103905      10.06973379      -0.64345555       0.92382765      -0.65109741      -0.43347751      -1.56197223       0.30006536
H      -86.60159961     -23.22565415      10.57308140      -0.39251884       0.23914123       0.12626567       0.99125429      -0.74980772      -1.83123124
H      -88.01241335     -24.09116098      11.01697333      -0.03973524      -0.20196566       0.24781071       0.93146417       1.13927287       0.26294412
H      -89.89184343     -20.43616922      15.23757568       0.16717789      -0.15406206       0.14905963       0.66894515       0.71853097       0.05171395