1296
Lattice="-37.70486381217568 14.037401392606006 56.08290536499156 0.0 16.612723054050907 1.5870245059853798 0.0 0.0 -31.499117140596418" Properties=species:S:1:pos:R:3:momenta:R:3:forces:R:3 energy=-1487792.8663310856 free_energy=-1487792.8663310856 stress="0.002967157576717866 0.002281986999279708 0.00022786596400390665 0.002281986999279708 0.003408725783964761 -0.0013605265974880665 0.00022786596400390665 -0.0013605265974880665 0.003592520381237102" pbc="T T T"
C      -25.45219588      22.16224660      35.15393031       1.08309628       0.38190874      -0.27560311       0.02517325      -1.76989043      -1.31626845
C      -25.15831215      23.51706603      35.20006304      -0.78867487       0.11896803      -0.34822496       1.03798052       1.06346943       1.35238520
C      -26.72209141      21.79255675      34.53928221       1.04921294      -0.38650240      -0.15184259       3.24000803      -1.86280100       0.82442655
N      -24.48961995      21.31097790      35.46541175       1.25547338       1.50476626      -0.52293820       0.17415288      -1.69054139       0.36569214
C      -26.15191341      41.08824361      36.57857395       1.86049522       1.11501186      -0.38753330      -1.30122599       1.89553404      -0.21996548
N      -23.88196967      23.99533395      35.57444248       1.29885875       0.19545855       0.90408964       5.46264177      -0.41418397       1.01633726
C      -27.29680939      40.66648860      35.85720430      -0.06334313       0.38840626       0.57759118      -1.02812109       1.26711578      -0.86974715
N      -26.09257868      42.35199948      37.00622538       1.80271466       0.13894622      -1.15588993      -2.31675923       1.32080574      -2.05487653
C      -27.56941483      22.72280457      34.02498646      -0.59055578       0.54962562       0.43413976      -2.15472024      -1.93235156      -1.40911306
N      -28.24634317      41.58709155      35.26016681      -1.56205490       1.35572247       0.33312751      -0.62112096       0.33044599       0.48629399
N      -28.65697053      22.13654166      33.44697609      -0.06912372      -0.03104690       0.89330834       2.56768582      -1.68407588       1.66491956
N      -27.01750761      20.39415292      34.37047560      -1.41378286      -0.75504155       0.93849809      -0.15803684      -2.84988223       3.39460625
O      -23.58899921      25.18891201      35.49607480      -1.65717430       1.75198907      -0.78263397      -1.15597431      -0.85979071      -0.20182132
O      -22.85931393      23.21595844      35.93311208      -1.08597300       0.54935406       0.20291582      -4.08848892       1.44404672      -0.98323795
O      -28.86381750      41.21725135       2.75248128      -1.34803229       0.53607665      -0.65238415       0.58041202       0.82986239       1.22810052
O      -28.45997522      42.67868003      35.83066233       1.56788774      -0.71572213      -0.06650714       0.36776307      -0.96635085      -1.22545553
O      -26.65666595      19.68120221      35.33655947      -1.37033313       0.26949994       0.96402803       0.33478386       0.79610128      -1.10403039
O      -27.71633525      19.80794568      33.50360418      -0.18877579       1.22412321      -0.01204881       1.13485433       1.39411265      -0.33074621
H      -24.52793166      20.32535090      35.17552459      -0.03618810       0.10620805       0.33148533      -0.24239690       0.88146749       0.42911412
H      -23.63023936      21.64027225      35.93646917      -0.12135131       0.08392771       0.42176535      -0.71214455       0.20047927      -0.83152131
H      -26.78244940      43.01585479      36.51320043       0.02979666      -0.13589234       0.00013172       1.19734040      -1.52296405       1.45271360
H      -25.26909454      42.78883195      37.33168432       0.12130739      -0.03205684       0.29870037       1.04441884      -0.15056428       0.33281196
H      -28.59182198      21.08866064      33.27953684       0.01417516      -0.15331885      -0.30767091      -0.59434709       2.22282417      -0.08955164
H      -29.25348376      22.68719675       1.48838406      -0.28778918      -0.01501305      -0.34202865      -2.56344097       2.23900422      -2.11974345
C      -37.55859896      21.55596277      21.90632407      -0.58792166      -0.01169598      -0.14245854       0.62068202      -0.65083575      -2.48847296
C      -36.86862694      21.71772654      23.04748477       0.46930990       1.47591686       0.54037724       2.58586346       1.47260208       5.01786164
C      -38.84803550      21.15752495      22.01224810       0.96730468      -0.05209125      -0.32360689      -3.78093315      -0.53371261       0.57649740
N      -36.97531815      21.59522740      20.73225361       0.37548156       0.13028725      -0.13036243       3.46823615      -0.22161810       2.14555181
C      -37.49994003      21.67027483      24.37331505       0.60171879       0.01202708      -1.83998722       1.91316929       1.05907680      -0.05079050
N      -35.46996865      22.18012199      23.05436652      -0.92240151      -0.90782109       0.14225353      -0.00762271      -2.69238920      -3.59675510
C      -38.84282428      21.43013398      24.40204545      -0.42145146       0.27805149       0.92033923      -2.00511264      -0.50305891       0.45455630
N      -36.91051394      21.87295286      25.54880644       0.01852062       1.01960778      -1.17318298       1.40210627       0.96464126       0.60423519
C      -39.53005327      21.18156150      23.23013287       0.55933111       0.20709475       0.82785649      -2.37413104      -0.73515255      -0.98380137
N      -39.53929723      21.26378176      25.62630334      -0.37191617       0.40971384      -0.12407219       2.58224113       0.48992758       3.68298685
N      -40.86390127      20.96426568      23.28585350      -0.57654170       1.79055953       1.11443030      -0.05502413       0.50373704       0.37232473
N      -39.66338822      20.99446586      20.82886330      -1.99252790       1.47063616      -0.40125880       0.94190556       1.03107747      -2.50942875
O      -34.92096571      22.54980928      24.02644188      -0.07244909      -1.53334699       1.18371919       0.67124607       1.63290717       3.46426466
O      -34.77951313      21.99978667      22.03015530       0.19917848      -0.78869084      -0.22972530      -0.98465488       0.22228453      -0.19682466
O      -38.95960047      21.72038004      26.69602756      -1.82951628       0.09948798      -1.20640576      -2.01682960       0.01410842      -1.37308745
O      -40.52062432      20.59825111      25.79455092      -0.41454137      -1.11185027      -0.79529545      -1.33264893      -0.31838197      -0.72287685
O      -39.45998105      21.85208899      19.92657281      -0.91363195      -0.97553200      -0.90874399      -0.77572665      -1.56955520       1.41199235
O      -40.41411106      20.03604233      20.67631362      -0.29078465      -1.38164317       1.74186797       0.32737253       0.95589099       0.76903165
H      -37.40888718      21.67920804      19.91192063       0.02110233      -0.25064818      -0.05130450      -2.34271795       0.31972681      -3.30428042
H      -35.96390963      21.59559886      20.76020763       0.34460455      -0.08314345       0.11385325      -0.00659828       0.31681731      -0.14508913
H      -37.52519391      22.13353566      26.38826638       0.03353024       0.26218982       0.15945410       1.13004594      -1.19454274      -1.75322880
H      -35.91238978      22.03064660      25.56348353       0.06725869      -0.00359276       0.11293394      -0.29575309       0.15007453      -0.14349608
H      -41.41237549      20.75262172      22.48888634      -0.07729210       0.25483194       0.52776469      -0.06507631      -0.07053581      -0.71087692
H      -41.40261028      21.27194536      24.08528158      -0.38542406       0.11417241      -0.06538127       0.46042160      -0.46117624      -0.31762587
C      -39.06591927      12.31529883       9.65219761       0.21827458      -0.75665234      -0.82524730       1.60041470      -1.26669130       3.22235396
C      -39.59845966      13.50130557       9.09947362       1.76338475      -0.63201140      -0.71155128       1.47409967      -0.05100277      -0.68246754
C      -39.80381316      11.07396684       9.60691772       0.42323341       0.86735992      -0.39304861      -0.27044153       0.64269243      -0.33137280
N      -37.97389651      12.46324655      10.47082535       0.03346197      -1.28475626      -0.55293470       0.02606482      -1.34363801      -0.35745011
C      -40.71092977      30.01923479       9.89320683      -0.45949648      -0.53210696      -0.05182979      -3.32195733      -0.56782518      -2.42610998
N      -38.77718343      14.72287891       9.01955091       0.16667834      -0.40772738      -0.64212745      -1.91800419      -0.77810616       1.07670675
C      -41.47497884      28.77469708       9.80152154      -0.40101569      -1.07936288      -0.90363049       0.19082219       1.60571196      -1.04747422
N      -41.18935175      31.10677760       9.20320406      -0.97498347      -0.36278791      -0.41987314       0.51531972      -0.13953093      -1.17096219
C      -41.06219008      11.03990684       8.94183257      -0.66209804       0.08219104      -0.28873241      -1.56930888      -3.16166841       0.34010971
N      -42.64832633      28.57313696       8.77879256       0.48218059      -0.16176977      -0.00381659       2.65463508       0.03396131       2.54710479
N      -41.82154881       9.86151465       9.04086222      -0.24095994       0.73664252       0.07215164       2.49719828       1.84499255       0.20775124
N      -39.34422717       9.88602780      10.32238399       1.41313580       0.30832723      -0.56799810       1.71901948       3.94045672      -0.13084290
O      -39.30014642      15.71207309       8.55044432       1.27153064       0.26800371      -0.36689398       1.04200615       0.63030551      -0.14608535
O      -37.69044065      14.72562673       9.55160289      -0.09594322      -0.44715239      -1.01869281       0.99745174       0.95282157      -0.34539374
O      -43.41888997      27.72950262     -22.31258047       0.67849654       0.34878931      -0.91853849      -1.19280380       0.53602281      -1.45594495
O      -42.66399345      29.13120091       7.69426248      -0.87094237      -0.90075907       0.86624239      -0.25971210      -0.17221674       0.83226930
O      -38.29233075      10.05023171      10.90980642      -1.87519602       1.34482662       0.37372860       1.59958080      -0.24353653       0.79415816
O      -39.90506606       8.85363573      10.40342279       0.93362606       0.33694202       0.23449742      -2.50135929      -2.78799270      -0.38709845
H      -37.48607255      11.66175770      10.92166259      -0.12667983       0.07746608       0.13428160      -1.20741052       0.98727692      -1.01986645
H      -37.48838236      13.34015897      10.34468918      -0.39560665      -0.44611257      -0.12910829       0.11624199      -0.16478722       0.18244714
H      -41.73343978      30.96597218       8.38183204       0.07763451       0.08690421       0.25226642      -1.09039651      -1.26095509       0.08244779
H      -40.47493577      31.71773778       8.84538963       0.14485891       0.15249933       0.12449659       0.14593535       0.43913103       1.05615328
H      -41.34828579       9.08901187       9.56500886       0.01565215       0.05791842      -0.16421656      -1.13221450       0.95458049      -0.82116319
H      -42.74376224       9.94907102     -22.84919365       0.27411366       0.06185209       0.24651789       0.05850822      -0.59628128       0.22181949
C      -25.48609998      -0.31050647      31.18513402       1.03658828       0.29239938      -0.68103336       1.80062516      -3.23394535       1.24721963
C      -24.61561050      -0.22262592      32.39800486      -0.25320336       1.05473491       0.18504944      -0.78212210       0.26551680      -1.05080571
C      -25.54635051      -1.65541568      30.57472211       0.07763781      -0.28215968      -1.12435833      -0.28153094       0.43256017       1.99267102
N      -26.10962441       0.71187512      30.70305513      -0.21304377      -0.63707426      -1.12136511       1.69403500       1.22723537       3.82874738
C      -24.14740280      -1.44302793      33.03812906      -0.50257045       0.35199370       0.43213234       0.33113328      -0.51215090      -0.72403791
N      -24.20341387       1.08807889      32.83055069      -1.08865254      -0.17037941       0.58815989       0.69773197       0.85632294       0.79506866
C      -24.61953555      -2.71651395      32.60503319       1.32414952       1.23949367       0.47813822      -0.14312482       1.15183738       0.02368886
N      -23.13304389      -1.43071042      33.87534439       1.98405945      -0.35224196      -0.96164340       2.38357791       2.33234418       3.50959580
C      -25.21782631      -2.86864864      31.30762379      -0.05030506       0.88566890       0.27748915       0.81715005      -2.15296087       0.73027802
N      -24.31934581      -3.82221915      33.47684033       0.17926939      -0.28320714       0.15760218      -1.87053427      -2.86175976      -3.40935669
N      -25.41107473      -4.12933536      30.82610505       1.62916705      -0.44807717       0.35250930       0.46795756       1.10130180      -0.28662189
N      -26.31131096      -1.82248335      29.45219507      -0.31109748       0.25367238      -0.72474426      -2.39422346       0.71233318      -4.98692496
O      -23.54316594       1.30291123      33.86250315      -1.17276097       0.05229067      -1.60370165       0.20943433      -1.95878473       0.36150584
O      -24.47614953       2.11240125      32.19731280       1.67934171      -0.27233100      -1.07513295      -1.06458436      -0.49596048      -1.24920070
O      -24.49160153      -4.95135610      32.96577422      -0.98181176      -0.75210028      -2.48192701       0.23984735      -0.12887668      -0.54038880
O      -24.05607738      -3.79714468      34.62443430       1.19950396       0.60820894      -0.82183753       1.13440864       2.19571362       3.05708677
O      -26.35012551      -2.91350846      28.83283655       1.27428367      -1.18442441       0.96513128       0.31914298       0.74754392       1.09682760
O      -26.94877663      -0.86409952      28.89745017      -1.62360305       0.73492930      -0.02187280       1.50986029      -1.12755574       1.84787995
H      -26.46329252       0.73791162      29.82422046       0.11378203      -0.18941926      -0.53547293      -1.58082802      -0.15153354      -2.80222843
H      -25.93928090       1.51561582      31.31376753      -0.14766129       0.39481669      -0.16230167      -0.42796760       0.25314906      -1.09043008
H      -22.69041695      -2.15838019      34.57156474      -0.15046799      -0.18148381       0.02278942      -2.18529841       1.53559118      -2.61529424
H      -22.89193996      -0.42674622      34.14286502       0.37767368      -0.12484253      -0.27266601      -0.12331412      -1.79086649      -0.22919941
H      -25.82508436      -4.13386486      29.88473408      -0.15582958       0.14666716       0.25280595       0.39087713      -0.31926324       0.65505334
H      -24.89737777      -4.95266307      31.24522044      -0.24028104      -0.20478236       0.41242507      -1.12719742       1.85669602      -0.44725757
C      -21.06289595       1.59252645      11.22320350      -1.11489415      -0.74706873      -0.17389990       0.08511046       1.02944806       0.24083517
C      -20.78113646       1.34692225       9.83926455      -0.80392947       0.06129814       1.00725110      -0.22935476      -1.22674968      -0.21646055
C      -20.48664592       0.74484977      12.16279808       0.72911987      -0.80347797      -0.43840547       0.19706085      -1.20325530       2.23225497
N      -21.80145838       2.64294070      11.64215128      -0.48112644      -0.79914252      -0.25769763       1.25971800      -3.88289471      -0.22944374
C      -20.11250170      16.71994943      11.01454611       0.28348952      -0.68246118      -0.60370041       0.33369976       0.54064829       1.73589250
N      -21.41931680       2.15104188       8.85880635       0.58371463      -0.17393867       0.19200111      -1.04261426       2.91761875      -1.77021942
C      -19.52917119      15.93440586      12.03864897       0.12452199      -1.37659069      -0.03590883      -0.40530338      -1.31794197       1.23453763
N      -19.83748807      16.35502074       9.79427112      -2.23239116      -0.85559537       0.35455752       0.17466734      -0.02551542      -2.45151363
C      -19.67417673      -0.36640611      11.80382781      -0.24693999       1.18290569       0.26543811       0.10342035       0.29188625       1.01864142
N      -19.17780069      14.50084771      11.86475415       0.03315438       1.01770104       0.89911292       1.54101986       2.21167198      -1.49823020
N      -19.10937628      -1.07510767      12.77652790      -0.57581279       0.17260541      -1.10805159       0.63624384       0.01378836      -0.95063520
N      -20.76369998       0.88489725      13.64104644       0.21838319      -0.92793934      -0.74974647      -0.36885736       0.90131551      -0.81240915
O      -21.72101708       1.67083411       7.75822507       1.08438838       1.78641755       2.38518685       0.71420239      -0.10878588       1.30235203
O      -21.65558704       3.40793927       9.06182739       0.74972065      -1.33208700      -1.11703085       0.72376759      -3.31392337       0.39351516
O      -19.51189295      14.01315526     -20.67485455       0.32412875       0.75828725      -0.08461439      -1.26078102      -1.40849392      -1.70855516
O      -18.42092868      13.91471035      12.60958352       0.53568353      -0.28847294      -0.06138159       0.29538781      -0.40240465       1.26257834
O      -21.17205042       1.96670564      14.05363799       0.44400082      -1.80076274      -1.69344490       0.20602909      -0.46371055      -0.18527969
O      -20.61071884      -0.06490206      14.41036086       0.17429674      -0.32376084      -0.05831760      -0.57913481       0.75064509      -0.11615048
H      -21.68971984       2.83561560      12.58482598       0.04907456       0.44735938      -0.21023789      -0.24892669       0.89982605       1.90057784
H      -21.95683425       3.24002929      10.93926555      -0.19625353       0.15517402      -0.00819406      -1.09027543       3.19915176      -2.62330329
H      -19.15431023      15.62180142       9.57332462      -0.38496691       0.33407347       0.06394239      -0.92008023       0.54412719       0.49388806
H      -20.37621462      16.73026930       9.03287014       0.35465782      -0.13347665      -0.17889173      -0.00873419       0.37563956       0.03361427
H      -19.35998767      -0.79375442      13.68162518      -0.05235574      -0.20936022      -0.03180252       0.09882891      -0.08569755       1.34004559
H      -18.36542388      -1.72514956     -18.86438860       0.61484295       0.15693957       0.22485611      -0.18706930      -0.20945923      -0.50835328
C       -9.48125302       8.06770524      -2.21544483       0.55183160       0.06274142      -0.69304806      -1.75269485      -0.50680159      -1.71288998
C       -8.65729570       7.83968493      -3.38822842      -0.93406670       0.94803473      -0.67244794      -1.77458643      -0.74964501       0.51206753
C       -9.06747961       9.08011978      -1.29027532       1.04625871      -0.06545436      -0.47524236       0.20235435       0.52815069      -0.44222973
N      -10.72748213       7.44705851      -2.18135108      -0.12155314       0.24860623       0.17601777       1.59589085       3.76034894       3.38560622
C       -7.41322248       8.42756828      -3.51823975       0.41681317      -1.40082303      -0.12652185      -0.72230013      -0.84990455      -2.11532037
N       -9.16601324       6.92901060      -4.49418012       0.77727569      -1.18511309      -0.78453653      -0.13183614      -1.65764272       2.20699285
C       -6.92226559       9.33080249      -2.58637055      -0.25391141       0.06056106       0.49519933       0.77809504       1.19733448       2.65727151
N       -6.70553995       8.21357174      -4.60820224      -0.39760509      -1.94771735      -0.67203474       1.10682685      -0.38551622      -0.79974956
C       -7.68878158       9.68109376      -1.42559247       0.40190095       0.93697028      -0.03787326      -2.09434217      -1.46190955       0.09298067
N       -5.52018830       9.69750486      -2.55183492      -1.07321107       0.23951828       1.05477846       0.46852151       0.59042867       0.29149158
N       -7.18765098      10.35012997      -0.42232062      -0.26505840      -0.24525233      -0.42632195       1.81043766       0.60956894       0.84235962
N      -10.02206841       9.63296396      -0.30073283       1.23189087      -0.45353602      -0.41308019       0.23256072      -0.41410838       0.13291998
O       -8.92646838       7.11077345      -5.67234118       0.67606103      -0.48595181       0.82301395      -0.39180923       0.25343331       1.05860619
O       -9.78530513       5.89386837      -4.06051025       0.46071926      -1.38812605       0.41696280       1.14941879       2.06281774      -1.38406614
O       -4.70331177       9.14111233      -3.28241895      -0.83718315       0.26706323       0.40764236      -0.21914058      -0.14389707      -0.07883372
O       -5.12513143      10.58622800      -1.77709987       0.14309172      -0.62121778      -0.25999476      -0.41515069      -0.61273787      -0.64654964
O       -9.67505805      10.63679920       0.33292586       0.35037832       1.61268913       0.09671531      -0.03555096      -0.41362420      -0.34315121
O      -11.13408832       9.11753036      -0.08512221       1.54252546       1.07055429       0.73357875       1.37790056       0.08473718      -0.77048648
H      -11.22599782       7.62239815      -1.29751184      -0.37668310       0.28962013      -0.13689007       0.30806606      -0.02555823      -0.87150596
H      -10.87493610       6.60222211      -2.59763600      -0.21358628      -0.41672995      -0.25015694       0.03832688      -2.23676125      -1.60951730
H       -5.78285548       8.54741003      -4.47335309       0.05195718       0.11575968      -0.37569885       0.96944694       0.21868740      -0.64531731
H       -6.75535752       7.43229716      -5.24338817      -0.01727939       0.38927537       0.14029929      -0.70644423       0.06555714       0.37525238
H       -7.76272304      10.58216924       0.38753385       0.22676909      -0.09048345      -0.46972346       0.27075458      -0.10814783      -0.60499013
H       -6.13455028      10.53299188      -0.48451955       0.34888803      -0.64536874      -0.10822374      -2.16111368       0.21535370       0.26022281
C      -15.68639328      30.99863994      39.21355452       0.94970764       0.49581528      -0.64227109      -0.45143065      -0.52528928      -1.40029167
C      -16.50107829      30.60224399      38.09987155      -0.81274597      -0.95049719       0.26134899      -1.39623158       1.64082511       1.33112484
C      -16.05864055      32.24903882      39.80176688      -0.97344724      -0.04405937      -0.94822916       0.10828786       0.41741473      -0.59690582
N      -14.65785254      30.27523454      39.70670106      -0.28144382      -0.08962566       1.13692413       1.57656974       1.74454745       1.54759710
C      -17.71056247      31.39118592      37.70063976       0.21673380      -0.36511610      -0.72562526       2.73807258       0.71331845       1.93053463
N      -16.20268635      29.40745531      37.42870801      -0.14504878      -0.24361469       0.20521252      -1.52212562       0.65040033      -0.81413934
C      -17.88018561      32.70472223      38.25511716      -1.56949529       1.10535547       1.26462292      -0.09773224       1.40054169       0.47307644
N      -18.51056364      30.92917629      36.82385605       1.09307576       0.97062954       0.72041824      -3.17499471      -0.20723308      -2.65537503
C      -17.01464095      33.16983013      39.35009963       0.82901874      -0.02064722       1.23710564      -1.37276855      -0.35979642      -0.82199229
N      -19.02539526      33.59625743      37.74935424      -0.01819052       1.49948308      -1.41555062       1.00944673      -3.45826512       0.74131741
N      -17.07692724      34.41196402      39.94415138       0.24738086      -0.59178600       0.10023895      -0.74011904      -0.29713541      -0.24957271
N      -15.45213294      32.60317816      41.05797352      -0.58292752       1.23780370       0.25812166       2.06064011      -1.30738038       1.42502226
O      -17.18680284      28.81803922      36.86615657      -0.46433889       1.22218184       0.82042915       2.74926315      -0.23941364       0.70659010
O      -15.02105756      29.12089956      37.37605411      -0.11374990       1.40269975       0.72826535      -0.51976031      -1.54844445      -0.56284697
O      -19.75441761      33.18744794       5.32040594      -0.50599062      -0.71838178      -0.43175558       0.68764716       0.72214302       0.38988132
O      -19.27785085      34.55699110      38.40331373      -0.03977868       0.43626642      -0.24425480      -0.19114152       1.56908780       0.25337801
O      -14.24038403      32.85920397      41.10540219      -1.58417138       0.17213517      -0.40106733      -0.80613501       0.24402105      -0.44082572
O      -16.10196504      32.45235421      42.07008446       0.93452653      -0.21591566       0.25276667      -0.78978719       0.53177948       0.07928008
H      -14.01498185      30.82322107      40.30733584      -0.11607315       0.13788762       0.10629375      -0.90273151      -0.58596769      -0.49701970
H      -14.16959248      29.41990549      39.42241211      -0.09178574       0.36471591       0.36083098      -1.43251471       0.53491629      -0.69435994
H      -19.28498838      31.53165775      36.44262660      -0.00309243       0.06488533       0.38220975       1.46778031      -0.93163625       0.94077000
H      -18.32553230      30.02046016      36.41482484      -0.10453251      -0.12239688      -0.06510750      -0.03841170       0.13237478       0.07281306
H      -16.39911226      34.68814081      40.61835865      -0.18062821       0.21435572       0.10037436       0.60106205      -0.37362154       0.25139358
H      -17.94806843      34.88193752       8.67273235      -0.32189660       0.14619376      -0.47920076       0.06923217      -0.44859359      -0.91861454
C      -47.52284119      37.62386196      44.16587953      -0.02920828       1.55156368       0.74852844      -0.28356932      -0.82197868       0.91746192
C      -47.95779874      37.57829777      42.77084036       0.06104544      -0.27499891       0.99641817       0.37832938      -2.10062878       2.95590972
C      -46.97060226      36.39438474      44.72817955      -0.73830006       1.70997547       0.12343514      -0.26013437       0.64856166      -1.29559404
N      -47.67748401      38.66374045      45.01555143       0.02220501      -1.03759282      -2.09357075      -0.42928956       0.32586945      -3.20529037
C      -48.36405820      36.22256381      42.22242240      -1.52915770      -1.12303116      -0.47603305       0.74935548       4.60342039      -1.24993365
N      -48.17840975      38.75888063      42.10599033       0.29168780       0.76701175      -0.65969943      -1.83654097      -2.56773260      -3.40062940
C      -47.90461677      35.12761327      42.92210094       1.02270005      -0.28319291      -1.10966422       0.50255879      -3.87420544      -0.23931376
N      -49.00702303      36.22139112      41.06182176       0.32205719      -1.35724057      -0.42811804      -0.73093882      -4.96525007      -0.42811628
C      -47.07491867      35.11279621      44.07757248      -1.42332229      -0.67443806      -0.01914913       0.00829827       0.10984454       0.98383858
N      -48.16686484      33.81250852      42.23707783       1.12907719       0.91243598      -1.08445883       0.86507790      -0.42944127       1.63728930
N      -46.57537355      33.99043352      44.66968280      -1.70113526       0.55989695       0.72563609      -0.67685904       0.34090296      -2.05849209
N      -46.30620672      36.46975195      45.95278635       0.52787787       0.23369867       1.00168195      -2.02477362      -0.19993557       1.33277454
O      -48.08792581      39.84578485      42.58052876       1.64642744      -0.29805681      -0.50938537       0.36504539       1.49462410       0.70402864
O      -48.55590278      38.54006399      40.89120156      -0.17442258       0.35605478      -0.42832300       0.83524235       2.68742184       1.29545727
O      -48.99313721      33.83584090      41.37037780      -0.35038904      -0.39629206      -0.91442409      -0.99640203      -1.07214112      -1.01336964
O      -47.61914139      32.72877295      42.54980820      -0.59049596      -1.53982234       0.76733119      -0.18269638       1.76062102       0.19374577
O      -46.72460730      37.26732962      46.82852873       0.28301808      -0.07063447       1.17957115       1.46794570      -0.76213117      -0.38857769
O      -45.50011709      35.58651655      46.20990626      -0.17922073       0.37466918       0.66382600       1.09703916       0.52322498       0.59936368
H      -47.40531915      38.60771687      45.96470748      -0.02984353       0.05488619      -0.60430180       0.29139720      -0.22023758       0.70493382
H      -47.94528692      39.54413092      44.60322047      -0.46233190      -0.08332982       0.08576477       0.05864438      -0.07331044      -0.05046643
H      -49.27720559      35.22375809      40.67968263       0.26596622      -0.25772005      -0.18256226       0.76561864       3.20249484       1.22614867