1296
Lattice="-52.25728956182898 -20.95098503562328 12.564503427933088 0.0 17.5099907247646 10.21090776336719 0.0 0.0 -23.557918474553006" Properties=species:S:1:pos:R:3:momenta:R:3:forces:R:3 energy=-1487778.7303423188 free_energy=-1487778.7303423188 stress="0.004071947248109493 0.0002807777194958979 -0.00020284586755438163 0.0002807777194958979 0.0034884147558640996 -1.7983247029607043e-05 -0.00020284586755438163 -1.7983247029607043e-05 0.002351775451391386" pbc="T T T"
C      -35.68878498     -24.44889822      -5.69413992       0.26455411       1.26676406      -0.38368698       2.00603461      -1.56403881      -2.42817919
C      -35.26261813     -23.23843514      -5.11588739      -0.34050858       0.28959205      -1.34297770      -1.16456935       0.45042267       0.80988263
C      -34.72321743     -25.11548292      -6.58109224      -0.52125947       0.37098638      -1.71435320      -0.68751332       0.44668665       0.04143877
N      -36.84597490     -25.00208006      -5.49725801      -0.25068652       0.23980686      -1.55534517      -1.96083335       1.50789489       3.43929790
C      -33.89359082      -5.38767689       5.18345740      -0.55478600       0.94687640      -0.21816152       0.12657489      -0.21777997       1.65011815
N      -36.19412431     -22.47060548      -4.29645880       1.34405993      -0.55788977       0.37049338       0.52246843      -0.35637119       0.88789866
C      -32.95261742      -6.14500126       4.42214372       0.73520521       0.33360481       0.91564406      -0.27369224       0.07740300       0.15441284
N      -33.52359819      -4.46882511       6.07101798      -0.83040117      -0.19514028       0.99080693       3.12474727      -0.81787433      -1.48131739
C      -33.39361403     -24.64257905      -6.71971611       0.87423360      -1.11021083       1.59829577       0.77747372       1.10034851      -1.79691460
N      -31.55535325      -5.86874957       4.52066740      -0.99519413      -0.25478930      -0.25439687       2.41322086       1.51343545       0.65008406
N      -32.57950023     -24.91452970      -7.76272012      -0.46016673       0.61987825      -0.55353828       0.93634311       0.71338595       0.68832680
N      -35.19562504     -26.14066023      -7.41780717       1.27865503      -0.51426250      -1.09778292      -1.34427169      -2.72484358      -1.52478527
O      -35.82127059     -21.49643062      -3.66300650      -0.82826573      -0.69341918      -0.70738401      -0.43200407       0.37829112      -0.63290295
O      -37.35421748     -22.85300923      -4.16127191       0.81804365       0.80265585       0.84800273      -0.10991779      -0.40301498      -0.17699907
O      -31.05746079      -5.56432877     -17.92442696       0.24314651      -1.51263572      -0.49410041      -1.41978546      -0.52173862      -1.45404982
O      -30.81483264      -5.84283413       3.51203712       0.02862556       1.04907968       1.51316014      -1.17821203      -0.46651341       0.94665998
O      -36.41357201     -26.51332157      -7.39633935       0.51869010      -1.19541549       0.71723665       2.11765399       0.94045975       0.11488890
O      -34.42373493     -26.77034855      -8.18843541      -0.49472012      -1.38204948       1.69961885      -0.52977129       1.55185934       1.25794074
H      -37.36399611     -25.73238642      -5.96273137       0.19490038      -0.05349955      -0.10191798       1.07289268       0.10930355      -0.33355114
H      -37.21698723     -24.55173642      -4.62935641       0.13629794      -0.18232398       0.34918997      -0.72432164      -0.78454487      -1.54358293
H      -32.51197040      -4.46707556       6.14440738      -0.15722755       0.22690036       0.06659940      -0.13613802       0.37428085       0.47934358
H      -34.06284193      -4.04183523       6.78590049       0.33358459      -0.35558278       0.42831613      -0.68168582      -0.00341833      -0.00313887
H      -32.89220697     -25.52900729      -8.49195611       0.15326640      -0.13361321      -0.03046138      -0.07999156      -0.28988394       0.25031450
H      -31.66364964     -24.35913225     -31.37869582       0.20520257       0.13453309      -0.00881521      -2.00182853      -1.19723907       0.22098851
C      -57.80612507     -15.24775496     -14.51929950      -0.48269243       0.42503125       0.48532772      -1.66803208      -0.37897800      -2.08155053
C      -57.90882240     -14.84506042     -13.10540607       0.24625675      -0.04690392       0.24933943      -0.56222166      -2.66642239      -3.54641243
C      -56.86691786     -14.55940099     -15.37778303      -0.31746772       0.65330187      -0.91851567       0.49768740       1.52185405       2.46778067
N      -58.64422642     -16.16001500     -15.15416092      -0.77930211      -0.00342049       0.19061889       0.66646053       1.26693247       2.66494066
C      -56.87754454     -14.10446153     -12.58951246       0.38813570       0.50407581      -1.25764140       0.18831457       0.06849792       1.47511940
N      -58.88540817     -15.57556677     -12.29878876       0.94653655      -0.30332368       1.56072284      -2.70206834       0.61754178      -2.94289652
C      -56.04940800     -13.27572605     -13.40494265       0.13717181       0.08738808      -1.74310299      -0.70385089       0.29348528      -1.04813688
N      -56.81247997     -14.15791230     -11.27113916       0.77770744      -0.74439496       1.01725591       1.72213816       2.13322025       1.39092375
C      -56.24699594     -13.29357141     -14.84424625       0.52469784       1.04467398       0.44124940       1.31073191      -1.41289028      -1.59287914
N      -55.25034109     -12.21900927     -12.81869781      -1.09194964       0.59307228      -0.45508300      -1.50408945       0.60086866      -1.82233380
N      -55.73337630     -12.39284514     -15.73720042      -1.01665207       0.62987222       0.27838055      -1.00943182      -1.18718208       1.99673228
N      -56.44042262     -15.10360100     -16.62146265      -2.13387032       0.84042700       1.01003523      -1.35010168       0.05523678       0.34761303
O      -59.96783385     -15.77877576     -12.89717140       0.77498897      -0.53546290       0.03792226       1.20425305       0.01827314       0.35102373
O      -58.77524298     -15.92321255     -11.16078141      -0.45671615      -1.23172510       1.27324813       1.44622196      -0.12109978       1.84677764
O      -54.79215940     -12.26453499     -11.69732871       0.73887599      -0.51524536       1.29846475       0.02076532      -0.43011308       0.31711430
O      -55.16753244     -11.24295873     -13.56784243      -0.08324892       1.64743652      -1.83844341       0.82685719       0.33296706       1.16708441
O      -57.05146801     -16.04457454     -17.09718976       0.78747401       1.08308510      -0.80421831      -0.52680437      -0.72713373      -0.31150072
O      -55.49076813     -14.63359696     -17.18755122       0.41753293      -1.35550995       0.96196151       1.53890266       1.07541226      -0.49029273
H      -59.41965233     -16.49775335     -14.59989831       0.29496883      -0.37401014      -0.12028170       0.06446714       0.20079243      -0.29382716
H      -58.71060025     -16.18940285     -16.15504944       0.15046790      -0.22016474       0.12297146       0.53698801      -0.06310682       0.16188546
H      -56.25239861     -13.37800009     -10.86509682      -0.47476156      -0.11515396       0.25111031      -0.65618474      -1.51016867       0.11564715
H      -57.40874972     -14.80839570     -10.75565726      -0.01662999       0.12873021      -0.04046001       0.48337779       0.60768425      -0.10431076
H      -55.47562104     -12.55765287     -16.66982331       0.05829832       0.12082997      -0.13325486      -0.36194446      -1.20278084      -1.08874934
H      -55.54813564     -11.46674595     -15.47372688      -0.29438989      -0.07046960      -0.09922114       0.29751568       0.83209719       0.99752310
C      -52.05868362     -17.40592911     -35.07494174       0.57445765      -1.58972337       0.30502223      -0.50283541      -2.80917776       4.10498373
C      -51.17361876     -17.17548508     -33.95157530      -0.10086798      -1.68759458       0.04027726       0.95821340       1.45442235      -0.14304130
C      -52.85806924     -18.62102301     -34.89763310      -1.20822699       0.56499899       0.34434323       0.38825108      -0.38291438       0.25415384
N      -52.21139988     -16.55098058     -36.01111022       0.30009193      -0.09181587       0.10272976      -1.87097720       0.32650544      -3.33272953
C      -51.11642396      -0.42479236     -22.51436058      -1.41460061      -0.18965748       0.87179930      -0.84228984      -0.54129930      -1.70538918
N      -50.36977518     -15.90781066     -33.98226445       0.64449880      -1.03147898      -0.56702975      -0.36443980      -3.55575248       2.57091577
C      -51.76735543      -1.68334574     -22.53400611       0.27947783       0.27324593      -0.59445253       0.84712928      -0.54105821       2.13954625
N      -50.53280679       0.01632436     -21.42625455      -0.73599458      -0.37526624      -0.21474192      -0.15751762      -2.08534417       2.08859342
C      -52.68536943     -19.53169816     -33.78436883       1.12180317       1.20050756       0.50175555       1.49350602       2.38066712      -0.11704113
N      -51.57455948      -2.52138658     -21.23631909      -0.86375384      -0.31890419      -0.96284529      -2.65405376      -0.12030532      -0.69445363
N      -53.38206238     -20.61160697     -33.64743282       0.70904635      -0.66826314       2.27373631       2.29621277       0.33377656       2.59170033
N      -53.60871867     -19.16643307     -35.99741706       0.05679939       0.94184624      -0.68264934       1.08368351       0.57168026      -0.79093532
O      -49.59254618     -15.69986397     -33.06982031       0.91758199       0.92220498      -0.61949625       0.47490181       0.26254519       0.36681149
O      -50.47100461     -15.16812118     -34.88837654       0.76549941       0.13858505      -0.16523882      -0.26132626       2.69400569      -3.15949195
O      -51.01329599      -2.06729967     -43.79203757       0.12409589       0.94352325       0.44002939      -0.31722283      -0.69252350      -1.15242657
O      -52.18726203      -3.61545354     -21.13583458       0.93745951      -0.18749429       0.28822046       1.12050443       1.29945666      -0.83133822
O      -53.66693976     -20.35577828     -36.18531558      -1.83045668      -0.82726356      -0.22263572      -0.19289909      -1.92418145       0.96739963
O      -54.05644752     -18.44556168     -36.87109070       0.72770329      -1.16966834       0.07985630      -0.50829779       2.25945160      -0.44798891
H      -52.90667042     -16.67595374     -36.76003417      -0.20074247      -0.05715820       0.30576607       0.58609208      -0.35610314       0.90567241
H      -51.66767153     -15.72885534     -35.99426452      -0.04757698       0.09676796       0.14193406       0.61904813       0.87523971       0.00866008
H      -50.70370871      -0.42371617     -20.49933734       0.64712046      -0.22405491      -0.45757821       0.12379372       0.29304982      -1.49238309
H      -50.35774146       0.94652224     -21.40452806       0.13982945       0.00272709       0.46555698       0.97720685       3.18866330       0.04955542
H      -53.98120329     -20.84732330     -34.30349199      -0.36653108       0.11140986      -0.28172040      -3.40551505      -1.61224372      -3.50155577
H      -52.96411328     -21.25191567     -56.58741754      -0.16509547       0.03284249      -0.23001343      -0.38940604      -1.04583717       1.21049044
C      -36.25620019     -20.79377118       3.06564134      -0.06213326       1.11727507      -0.50292121       1.85514252      -0.55203800      -0.74870721
C      -37.17963787     -21.31435788       2.12584177      -1.19073015      -0.67302098       0.64594236      -1.84655021       1.44463719       2.11447536
C      -34.84691976     -20.88630636       2.73551892      -0.25576764       0.05731114       1.66773660      -0.63790180       0.62980535       2.15371014
N      -36.58525043     -20.30178833       4.23318838       0.98339985       0.74341605      -0.83755135      -2.12185682       0.89911768       1.84090095
C      -36.90762520     -22.03063970       0.96175120       0.38707180       0.24780779       0.34300087       1.79890328       2.08127358      -0.45910011
N      -38.60061646     -21.35945296       2.68152085       1.46605720      -1.41483222       1.17558542       0.63932450      -1.32030161       0.42238837
C      -35.59267460     -21.70114100       0.48904094      -0.69229466       1.46136009       0.14756143       1.35957060      -1.11973492       2.93361714
N      -37.82770498     -22.60885605       0.23313823      -0.03670219       1.44767775      -0.43554839      -1.74877925       0.07060588       1.19500410
C      -34.53194579     -21.25837457       1.45521204      -1.17833372       0.75618862      -0.28092519      -3.05302021      -0.48624185      -1.17950806
N      -35.10463006     -22.34547164      -0.64371017       0.76317954       0.08768724       0.41944117      -4.17014459       0.45775350      -0.29036215
N      -33.31462280     -21.20365826       1.10099047       0.50816307      -1.33708539      -0.94473877       2.42081954      -0.06332217      -1.47342156
N      -33.71260956     -20.63454902       3.75018520       0.37999428      -0.21671069       0.36518829      -4.88679040      -0.04980895       0.35434337
O      -39.28357769     -20.40585129       3.04221499       1.34651481       0.49341868       0.46860043       1.24383772      -0.43119400      -0.68646339
O      -38.93287792     -22.53235547       2.84065964       0.89689280      -0.57586526      -1.16781457      -0.76649416       0.47398675      -0.16130429
O      -34.19742010     -21.83101389      -1.20849277       0.08236246       0.25364060       0.41331762       3.47777777       0.29938589      -2.04910365
O      -35.83768649     -23.19161679      -1.17569328       1.99513457       1.30419417      -0.09291806       0.94123762      -0.88645509      -0.29468121
O      -32.58615739     -20.78223909       3.45687799       0.40763961       0.63583138       0.18743908       2.80183694      -0.19930302      -0.72875181
O      -34.04993750     -20.34829210       4.90715547      -0.10890511       0.56300520      -1.52845413      -0.15320596       0.14785326      -0.25884205
H      -35.87131891     -20.08800386       4.92984882      -0.06689362       0.15800052       0.04246157      -0.11006390      -0.22534642      -0.63869336
H      -37.57041118     -20.15638354       4.49538870       0.04687051      -0.35460245       0.01376045       0.99345168      -0.24393314      -0.39264045
H      -37.62565047     -23.17324887      -0.53631028       0.43807615      -0.30843462       0.74441483       0.74157012      -0.58096779      -1.12872524
H      -38.72130376     -22.73519883       0.66286254      -0.20816425      -0.18770110       0.07315686      -0.23260782      -0.13966841       0.12154096
H      -32.62520610     -20.93294602       1.75361799      -0.04287479      -0.16352357       0.21237152       0.71632844       0.09138649       0.59831017
H      -33.03400378     -21.65956500       0.28452497       0.22249056      -0.00429835      -0.25473163       0.70329410      -0.28838986      -1.37104889
C      -17.28744808      -9.05463896       9.64003710      -1.01406828       0.23222084       0.29730546      -0.25442599       2.09849142      -0.22196777
C      -18.58626895      -8.57944808      10.16991977       1.17906925      -0.35367485      -0.05698489       2.23643352       1.50423574       0.07372089
C      -16.06084838      -8.38178698      10.07174626       0.54547964      -0.60494732      -0.62652758      -2.33758475       1.29541626       0.53833675
N      -17.32771529      -9.85467905       8.59305071      -0.09221496       0.02797434       0.38687815       1.80075297      -0.09122304       1.05328729
C      -18.61956968      10.22239396      21.10180414       0.40301640      -0.08653384      -0.73721405      -1.42871056      -3.52249819      -0.80636096
N      -19.78697669      -9.13814695       9.69271218       0.30999662      -0.20219631       0.34242056       1.50446289      -1.56342201      -2.51493068
C      -17.44449255      10.73965593      21.53504508       0.03003960      -0.08368992      -0.41524130       0.23613973       1.63403690       1.13490746
N      -19.79538637      10.74997816      21.43632739      -0.66646972       0.02486112       0.60159164      -0.15048448      -2.25055986      -0.67885305
C      -16.19273847      -7.15729547      10.92509212      -0.31589669      -0.07676181      -1.71220721       3.49509955      -2.43142952      -1.87422280
N      -17.59580238      11.90717145      22.44278575      -0.59275121      -0.45613561       0.29423343       2.49984283      -1.86502173      -1.23364537
N      -15.04338852      -6.50865556      11.25548741       0.56964141       0.16164426       0.76651799      -2.96898532       1.29495679       1.31484867
N      -14.85282027      -8.60264672       9.34114972       0.02934541       0.58945464      -0.63696235      -0.40468230      -4.63256549       0.46751739
O      -20.80349225      -9.08380770      10.26635756      -0.51774350      -1.62058988       2.50030494      -3.51595893       1.77318706       3.97349483
O      -19.81510556      -9.81189767       8.64962861       0.75594058       1.86672458      -0.53617649       1.20107864      -0.25443016      -1.25894986
O      -18.19589612      12.84113212      -1.51728465      -0.12906507       1.72043014      -1.10780367      -2.32521696       2.47953433      -0.87703717
O      -16.95505174      11.89631169      23.45437741      -0.92159254       0.69738841       1.57791742       0.70251708      -0.39526606       1.77342664
O      -14.58669051      -9.76149273       8.92364107       0.50428739      -0.32537062       0.99187469      -1.78729788       0.61698888       0.12221757
O      -14.00570323      -7.79089913       9.23979817       0.35820229      -0.89297915       0.20552456       1.97958505       3.64423530      -0.04913704
H      -16.55360258     -10.30578789       8.18729900       0.07292380       0.14401101       0.17751798       1.46402434      -0.07302759       0.07026601
H      -18.19169108     -10.02821850       8.20409279       0.42240437      -0.05846314      -0.26024230      -2.26807468      -0.56632079      -0.72413445
H      -19.79108286      11.57105298      21.94930790      -0.03443338      -0.36212352      -0.12153525      -0.45924224       1.38043643       0.94725553
H      -20.50516498      10.03051770      21.56610586       0.00062219      -0.08256407       0.36192199      -0.36743550       0.86270688      -0.24349305
H      -14.15960096      -6.72309903      10.86760425       0.29248901       0.38952896      -0.14412141       0.38662365      -0.25793338      -0.43470447
H      -15.20666232      -5.65701846     -11.75164603       0.17929972       0.00607010       0.39691824       0.75583929      -0.87586180      -0.38491058
C        1.74235703      11.65256292      -5.54614431       0.93736692      -0.33214876      -0.37829518      -1.82097368      -1.49813610      -4.02969247
C        1.64076182      11.24065560      -7.01623091      -0.59279473       1.03916677      -0.60550812      -2.08148576      -0.99860688       0.21909614
C        1.81392187      13.07773649      -5.38461087      -1.32956653       0.40438931       0.39150345       0.48078665      -3.35348212       2.74700204
N        1.59655228      10.68167315      -4.62603620       0.18922611      -1.60861307      -0.40111374       1.31545692       5.07388534       2.04893011
C        1.70923730      12.14725241      -8.12402981       0.46984474      -0.26570838       0.30281523      -0.23711319       0.11791466       0.57025698
N        0.77716748       9.90424974      -7.35059751      -0.79524928       0.01732660      -0.73239915       3.16476959       1.92481835       1.39575542
C        1.94999364      13.50915787      -7.77868811       1.16098507      -0.73325703      -1.34848327      -0.37729487       1.69289757       0.02604306
N        1.57206843      11.73351351      -9.39665415       1.20582022      -0.29631565       0.49669054       0.47123380       1.59551475      -0.03135295
C        2.02590622      13.96183311      -6.41671507      -1.43015602       0.06334287       0.91704210       0.42741509      -1.48634701      -2.73883118
N        2.02172599      14.59030876      -8.82997747      -0.16237315       0.65017772       0.50179995       0.95995455      -2.21402267       2.75998363
N        2.39891941      15.15975080      -6.13033126       1.37607080       0.42890507       0.81921753       1.00438913       3.49253543       1.08463235
N        2.09217348      13.37715118      -3.94559865       1.02343056      -0.23552847      -0.07115257      -1.10835623      -0.43563702      -1.13303421
O        0.47945200       9.53185483      -8.44500776      -0.81873736      -1.74223315      -2.29046742      -0.38269159       0.61237337      -2.04044946
O        0.56229066       9.20588828      -6.40032868       1.19573857       0.58804565       1.64456857      -0.75504757      -1.07710530       1.95043895
O        1.86260389      14.21846252      -9.94573090       1.61783036      -0.27767796      -1.46665362      -0.67478060      -0.18289545      -3.04269080
O        2.33408715      15.72982910      -8.55249190       2.84900825       0.91495079      -0.01893664      -0.19903964       0.97754513       0.12041063
O        1.36486663      12.83696564      -3.13024157       0.76057972      -1.17857539       0.55712875      -0.48998707      -0.18318781       0.30005392
O        3.03598265      14.03321539      -3.61718791      -0.48748184      -1.07086420       0.73831656       1.43176621       1.46500712      -0.01168553
H        1.54569919      11.08096712      -3.67063420       0.23523690      -0.44366329       0.16383381      -0.08390486      -0.98785473      -0.89733273
H        1.31343056       9.78762150      -4.82048313      -0.09732977       0.08694712      -0.16245348      -0.61690199      -2.05565569      -0.98157725
H        1.53131871      12.37770438     -10.16968995       0.35029275      -0.15038126      -0.43989758       0.20322562       0.40869500       0.60748159
H        1.21881942      10.85476054      -9.59245103      -0.46705140      -0.08611559       0.00979111      -0.56563581      -2.02871556       0.10129509
H        2.89784986      15.20813765      -5.27042185      -0.04675371      -0.09884413      -0.31400013      -0.03668811       0.65908833       0.66731365
H        2.48865953      15.94941146      -6.78390150      -0.16567979       0.15636094       0.06467432      -0.10772904      -1.28557157       0.29960818
C      -34.51257256      23.53233735      30.65210739       0.15755896      -0.61923683      -0.57335776      -3.26307436       4.15105854       2.97994524
C      -35.11547021      24.54798815      31.55920212       0.89429150       1.75888465       0.09964204       1.36984331      -0.33467257      -0.61082841
C      -33.39034027      22.89517691      31.10490431      -0.07809007       0.48834316       0.36144633       1.55374764      -2.44586327      -2.12257103
N      -35.23005613      23.30608828      29.58270634       1.04746746      -1.10632447      -1.69314787       1.54826142      -3.24388700      -1.20818274
C      -34.58758254      24.76416581      32.84839386       0.87720888      -0.40036984      -0.18713510      -2.86626670       1.84146329      -2.55388536
N      -36.15520742      25.47604675      30.98768849      -0.33164967       0.16943843       0.84193016       0.72762947      -2.26887186       1.83319101
C      -33.64627345      23.85907933      33.24578075       0.39321771       0.04871984       0.02168616       2.13444959      -0.59356374       0.88996513
N      -35.03997761      25.85488302      33.50731470      -2.03646517       1.01369013      -1.14407040       0.68425150       0.35950625       0.51790142
C      -32.89263322      23.06884043      32.36442444       0.84883815      -0.43269798      -1.08751843       2.31493489      -0.67106965       2.48991703
N      -33.16305338      23.99136586      34.52580615       1.16571196      -0.40088490       0.50683577      -2.51492378       1.18091488       5.13260859
N      -31.70504452      22.49171888      32.74769563       0.60218535       0.27158012       0.66686745       1.17610518      -0.54676949      -0.84881942
N      -32.71508547      21.84210923      30.27896291       1.30512654       0.70544027      -1.05285927      -0.62729328      -0.67831952      -2.70298090
O      -37.11071223      25.78683159      31.68859976       0.40105165      -0.43845673       0.58328037       0.29723541       0.33149889      -0.23843390
O      -36.00088440      25.75352715      29.83931207      -0.73560446      -0.77914211       0.10631167      -0.25570592       1.17754435      -1.48267767
O      -33.90502153      24.73561586      11.77219619       1.54076742       0.16470931       1.36876542       2.84961148      -2.03299786      -1.66455476
O      -32.29120642      23.29814881      35.01737981      -1.07146503       0.45672611       0.21275741      -0.08479745       0.59930436      -0.35796833
O      -33.44499999      21.04299916      29.61718656      -0.48395644       0.03475747      -1.10516483       0.43916179       1.90410312       1.82139204
O      -31.49674987      21.83992868      30.11231784       0.34968143       0.32237618       0.71647155      -1.38066910       0.56527359       0.98796589
H      -35.14806896      22.30463587      29.47709044       0.13225477      -0.34029649       0.31399812      -0.39058140       0.04881103      -1.50852985
H      -36.11866277      23.71024118      29.44770938       0.21116839      -0.05974603       0.04587811      -0.60035258       0.33686638      -0.17641221
H      -34.61349241      26.06891478      34.40731292       0.28390698      -0.28074075      -0.23258723      -0.28113645      -0.23934230      -0.55361007
H      -35.24598966      26.62120253      32.89577681      -0.29228937      -0.18371736      -0.17607380      -0.46282474       0.08866650       0.15032930
H      -31.06281384      22.29748907      31.93718443      -0.21034168      -0.34224773       0.13124778      -1.04902241       0.06776008       1.28021502
H      -31.28370966      22.37270172      10.16398809       0.04587980       0.05426574      -0.28038299      -1.65633466       0.90474761      -2.08318090
C      -73.36532450     -17.61638007       4.11507844      -0.07008650      -0.60748923      -0.47947467      -2.55255627      -0.49355441       1.32505301
C      -74.27120832     -17.93723760       5.20181481      -1.17738359       1.32215456       0.30069991       0.15975018       2.13666020       1.52541373
C      -73.10792791     -16.23591344       3.90071451      -1.73701115      -0.59303675       0.36217742      -0.65526380      -0.20620580       0.43716341
N      -73.03789915     -18.62287334       3.30882819       1.43977932       0.44497218       0.24770538       0.44095180      -0.32252946      -1.32646619
C      -74.77932327     -16.93310647       6.13660380      -0.26527998      -0.51743224      -1.51973789      -0.19716806      -2.84956276       0.32316434
N      -74.33661957     -19.33513250       5.70261528      -1.10179742      -0.51941290       0.74999205      -1.32152046      -0.66968781      -3.69476239
C      -74.44112382     -15.59468718       5.82403051       1.39586987       0.03088215       0.63475330      -2.00364404       1.00704989       2.76504567
N      -75.54858117     -17.42684049       7.22568116       0.93258556      -0.44732277      -0.23655492       1.27519734       0.29915097      -1.16185505
C      -73.62215696     -15.18109008       4.77656361       1.07860736      -0.79823630      -1.08968648       1.08760931      -3.43776859      -1.05707319
N      -75.01479749     -14.53360423       6.75451817       0.31610626      -0.24132104       1.12892935      -0.98233591      -0.32212872      -1.03809108
N      -73.13305975     -13.99806674       4.65820717       1.21837341      -0.53192277      -0.04646359       0.67464069       2.75042901       0.76074232
N      -72.46960666     -15.92497809       2.69983172       0.00470612      -0.03671223      -0.12335998       1.45202468       0.34459070      -1.49145963
O      -73.62570984     -19.59322781       6.62085988       0.21874792       0.27825405      -0.44233411       0.11259190      -0.67689042       1.03825634
O      -75.04040899     -20.16575912       5.02851842      -1.23999226      -0.54763132      -0.61614055       1.65121411       1.69944940       1.81653812
O      -75.04297830     -13.37624892       6.31116770       0.03045680      -0.70697607      -1.02758589       0.50784423      -0.59356607       0.69939717
O      -75.59032776     -14.83942600       7.80115258      -1.09090216       0.01085924       0.75056757       0.88696408      -0.00752386      -0.99274472
O      -71.78007634     -16.80954560       2.13419295       1.93202380       0.38049626      -0.01531140      -0.54517395       0.55498085       0.27462475
O      -72.54529583     -14.81306578       2.17656696      -0.60323494       0.09616247       0.34145947      -0.16962709      -0.13171812       0.58255664
H      -72.62567777     -18.36564875       2.38735388      -0.12654289      -0.19936627      -0.15702487      -0.34393940      -0.65903406       1.41206748
H      -73.57508932     -19.48163066       3.40700643       0.25090549      -0.40765198      -0.15373203       0.38932865       0.45440762      -0.23674706
H      -76.11377679     -16.79467358       7.85513677       0.29845673      -0.38712562       0.49123826       1.50969787      -1.17130753      -1.17299568