1296
Lattice="-46.81133291860143 -47.93815680278814 52.07276928800672 0.0 22.083238471146775 3.3822150282898598 0.0 0.0 -22.88815155596257" Properties=species:S:1:pos:R:3:momenta:R:3:forces:R:3 energy=-1487777.9963809822 free_energy=-1487777.9963809822 stress="0.003848559727593203 0.0014137767856907512 -7.826454657752886e-05 0.0014137767856907512 0.002017089212996902 -0.0003840103181608144 -7.826454657752886e-05 -0.0003840103181608144 0.002455882726274758" pbc="T T T"
C      -32.04866671     -35.67812814      26.39090005      -0.28378603       0.31213982       1.06006329      -3.04065730       0.18776657      -1.84736763
C      -32.29128862     -35.73788331      24.92426470       0.03680691      -0.07270572       0.52920859       0.39698170       1.94990791       0.76777886
C      -32.92680519     -34.73429269      27.13933719      -0.13140455      -0.11526082      -0.04480048       1.67984833       0.19795203      -2.49200105
N      -31.38311626     -36.59122291      27.04667851      -0.06010767       0.77739997       0.81500592       1.15329167      -0.75745964      -1.64895771
C      -33.07394026     -12.64953468      27.56453528       0.10158267       0.43974364      -0.16336816       1.72359614      -2.40832142      -1.50051684
N      -31.62601251     -36.84268996      24.26241765      -0.39637805       0.18298485      -0.58421096      -2.21641005      -0.40267693       1.12098285
C      -33.75173800     -11.70191302      28.31765347       0.59316199      -0.95263129       0.35061022       1.69194821       0.06026762       1.76883690
N      -32.98092486     -12.68153536      26.14589976       0.78551073       0.18211728       0.60902704       0.50203694      -0.85904340       3.51346562
C      -33.49714894     -33.62680521      26.42197390      -0.72957326      -1.34151315       1.44069753      -1.76461467       1.68671408      -1.27404565
N      -34.50014787     -10.74325663      27.62984111      -0.83399912      -0.34920518       0.20525223      -2.01402003      -1.54990857       0.73262396
N      -33.93316403     -32.46404194      26.98008068      -1.26732929      -0.24389071      -1.09019095       1.89706747      -2.35339725       2.32631997
N      -32.88984637     -34.70640161      28.52664562      -0.28588792       1.38472355       0.52240300      -0.38129751      -0.01337308       1.66311772
O      -32.25487590     -37.52694309      23.46890861      -0.79461948       0.74428725       0.87695794      -0.03063746       0.54013115      -1.05575976
O      -30.58617941     -37.22443915      24.74951390       0.69091355      -1.61684838      -0.64065045       1.89610336      -0.24684477      -0.27634128
O      -34.94234079      -9.83369591       5.39778096       1.28033360       0.69225755       1.28586773      -0.75170483       2.66607534      -0.05194766
O      -35.00085685     -10.98541492      26.54612089      -1.37501993       1.93752142       2.41473941       0.73089012      -0.27605978      -1.72277632
O      -33.39860423     -33.74754567      29.09078328      -2.00732396       2.31706959       1.00780168      -0.01049109       0.28965921       0.58546186
O      -32.43994464     -35.64692111      29.20212502      -0.27280771       1.55992269      -0.22300144       0.11919527      -0.01119775      -0.72898363
H      -31.57918745     -36.48556690      28.03028835      -0.08255077       0.07901605      -0.08055050       0.64079520      -0.68231218       0.79102999
H      -30.79235997     -37.27801547      26.46779492       0.50412983       0.04827848       0.27629601      -1.17597059       1.51457146       1.77728263
H      -33.72889021     -12.29531058      25.60712642       0.57015732      -0.04276758       0.14229932      -0.17096301       0.05970293      -0.00131227
H      -32.52725254     -13.55079196      25.87527727       0.29594191      -0.26712132      -0.08811107      -0.62495002       0.55200267      -0.56838592
H      -33.68212955     -32.35610354      28.00895183       0.13262731      -0.34342179      -0.22961188      -0.72771870      -0.20195655      -2.11956951
H      -34.45534625     -31.81357493       3.52244779       0.20227180       0.26090466       0.04443682       0.47713705      -0.11712362       0.32651285
C      -52.46721246     -54.23461141      15.80716213       1.08709029       0.98882559      -0.33209904      -0.14759329      -2.73273811       0.25062516
C      -53.42808604     -54.72370635      16.74493533      -0.11936027      -0.18601479      -0.25357874       2.22004829      -0.19300701       0.98518891
C      -51.02216286     -54.44132596      16.07850773      -0.30046217       1.72943875      -0.98605066      -1.84759612      -0.21563178       0.71229925
N      -52.87079178     -54.03713957      14.54539771       0.95125725       2.07032584      -0.10788081       1.31667393       3.09977108      -1.25182271
C      -53.03791693     -55.21092005      18.07947976       0.95000067      -1.84680872      -1.06393198      -0.85142813       2.23524158      -1.54950413
N      -54.79992003     -54.74254269      16.35809128      -0.03232321       1.41902627      -1.48578254      -2.74739033      -0.68956064       0.61978451
C      -51.63822142     -55.08654316      18.40315044      -0.39456452      -1.36294327       0.07470314      -0.17751160      -0.78081783      -0.16273008
N      -54.03063675     -55.42708123      18.95189716      -0.57195139      -0.05457609       0.24620670       2.70709254      -0.24131676       1.82352036
C      -50.61537917     -54.79177936      17.40072026      -0.67804990      -0.20276998       1.48483009       0.27423096       1.48017697       1.40974934
N      -51.25931616     -55.44334595      19.80390034       0.74035281       0.46701841      -0.07597911       0.26236809      -0.24293858      -2.57626408
N      -49.35143020     -54.54604664      17.83881092       1.76162709       1.25569017      -0.54650863      -0.22126202      -0.29054453       0.17411936
N      -50.03630608     -54.27771889      15.06545484      -0.67149421       0.49517231      -0.46157168      -0.78657511       0.12776264       1.51448347
O      -55.33072183     -53.80132028      15.78647898      -0.87628550       1.10232626      -0.67498774       1.24567651       0.32874050      -0.43654071
O      -55.52759155     -55.70903731      16.67094825       0.00429021      -2.29305147       1.63252941       1.54421813       0.24748829       0.20298222
O      -50.20629311     -55.97764618      20.03968098      -0.36867150       0.81136302       0.07581173       1.44317690      -0.21416539      -0.26675222
O      -52.06016387     -55.24992231      20.66796490      -0.05785711       0.20371512      -0.44476666      -1.89012777       0.69629116       1.64196549
O      -50.38721400     -53.78069953      14.00939365       1.09495652       0.27618109       0.05837897       0.74968115       0.25238642      -1.10889771
O      -48.89060961     -54.62052110      15.31948444       0.53537667      -0.81641264       1.39653658       0.36888389       0.05015719      -0.69865330
H      -53.71976836     -53.51094845      14.23742251       0.55833012       0.05238215       0.52915246       0.48063911      -1.12192085       1.46276271
H      -52.06613634     -53.54868065      14.07545809      -0.40960722      -0.03905319       0.16425217      -1.21727910      -1.12499356       0.00740783
H      -53.73274805     -55.58546836      19.92070390       0.00077108       0.13983839      -0.25255156      -0.53850721       0.11960807      -0.91226159
H      -54.97075232     -55.57991634      18.73623350       0.12129414      -0.07600847      -0.14726071      -0.98900876      -0.29029203      -0.90791213
H      -48.57681308     -54.24733828      17.24347548      -0.03014301       0.22730340       0.20502065      -1.02382193      -0.49275920       0.14363820
H      -49.14658498     -54.63524289      18.82369878      -0.17803659      -0.06885577      -0.04178358      -0.04059234      -0.30923199      -0.48796122
C      -45.22298550     -56.96966126       4.68924129       0.81281043       0.24560741      -0.81871300      -1.11928687      -0.00673206       1.27423655
C      -44.49086959     -58.07898968       4.23191614       0.64915669       0.06828538       1.08632191      -0.63083070       2.75824230      -0.04044925
C      -44.52083471     -56.01149248       5.42463555      -0.33627540       0.11101703       0.78322654      -0.08923180       0.23866932       2.08347107
N      -46.57779788     -56.87551292       4.54083277      -0.39274162      -0.20799887      -0.32924676       2.02056361      -0.66523499      -0.88544823
C      -43.11427902     -36.13554771       7.75777172      -0.04703553       0.37378660      -1.08327790       0.47642295      -1.69188072      -0.60262679
N      -45.19491714     -58.83496448       3.33056673       0.65161251      -1.09441800      -1.29402692       2.34055932      -2.04258327      -0.75126666
C      -42.50883884     -35.23912271       8.60963560      -0.02633407       2.00289713      -0.16487754       0.93825791      -1.10361163      -0.36222328
N      -42.44181406     -37.19227867       7.23849962      -2.20439492       0.14718911       1.09635567      -0.60881385       0.61291169       0.21623918
C      -43.20808337     -56.28736814       5.82023424       0.92107008      -0.78341162      -0.91796073       1.80268463      -0.43126023      -1.08233532
N      -41.24594523     -35.71057581       9.20925892      -0.06967076      -1.45959966      -0.92072043       1.96949941      -1.25534947      -0.72284884
N      -42.47566748     -55.50846944       6.58773458       0.63403859      -0.18624566       0.19755358      -1.78700460       0.77574761      -1.42530455
N      -45.20457245     -55.08713953       6.28946309      -0.66910201       1.53704367       1.34693513      -1.04858887       1.05342199      -1.53704716
O      -44.55168707     -59.28235992       2.38492140      -0.77623222      -1.14470466       0.62374452      -0.24479936      -0.40110698      -1.25764126
O      -46.31255290     -59.11303055       3.57486766       1.93912512       1.09024170       1.45468380      -3.22671378      -1.20819559      -0.43338750
O      -41.23908736     -35.91284752     -12.50239811      -1.35322878      -2.35359541       2.15978134      -1.03833641       0.60862155       2.56019736
O      -40.23475789     -36.08036337       8.58387395       0.25615664      -0.08788904      -1.22173908      -1.46062707       1.01326518      -1.44943201
O      -46.40854255     -54.92475920       6.16345532      -0.84724188      -0.81946892      -0.35334087      -0.86900981      -0.43680762       0.12767141
O      -44.59783177     -54.33448637       7.02686670       0.73526280       1.53171156      -0.96477383       0.59772809       0.22581860       0.74215048
H      -47.03007440     -56.14849051       5.02854647      -0.00485210       0.26198399      -0.09761021      -0.34269383       0.97613287      -0.07392059
H      -46.79585760     -57.12422289       3.60187078       0.19365207      -0.42672653       0.08759269      -1.25417270      -0.06563839      -0.02538753
H      -41.48169417     -37.23730482       7.47261696      -0.04843554       0.23729851       0.01375598       0.80463974      -0.38617550      -0.14495503
H      -42.90345889     -37.89410003       6.68201429       0.22677668      -0.55131566       0.52269644       0.10481860       0.39635776       0.10680240
H      -43.05076772     -54.84221709       6.97773330       0.07956279       0.24192579       0.16954760      -0.39309334       2.18576426       1.75207695
H      -41.73774864     -55.89255328     -15.86869763       0.37976773       0.19620499       0.15399862       3.04565824      -1.19645510       1.84710656
C      -32.00025007     -27.72537894      41.65127647      -0.57996263       1.43685239       1.48957089       0.82497335       1.39092983       1.56015134
C      -33.26244417     -27.55495599      40.99732690       0.17921590      -0.50965659      -1.72651491       1.92027772       0.32089493       1.37720516
C      -31.01030075     -26.60104879      41.73810620      -1.06538255       2.05259280       0.79865450      -3.12596129      -1.15566104      -2.18530500
N      -31.72388697     -28.82357526      42.32895622       0.50229234       0.49377998       0.47427933       0.38680912      -0.71375299       0.63150089
C      -33.37920639     -26.48684639      40.08795941       1.08269577      -0.40163889       0.90891894       2.07719611       0.40321126      -0.75653959
N      -34.28222785     -28.50628810      41.20994787      -0.29235933      -0.85470076      -1.00581755       0.57331988       0.55321665      -2.16098938
C      -32.20769453     -25.65976743      39.78623753       1.13079036      -0.45258013      -0.26008620       0.24920375       0.15797335       2.38249021
N      -34.46074917     -26.33883499      39.39324927       0.93341922       1.68094859      -1.05018123      -2.94330384       2.38924216      -3.59382977
C      -31.09598294     -25.53523479      40.79530876      -0.80302111      -0.98904656       0.23202659      -1.96802443      -1.65139379      -2.42974535
N      -32.33153913     -24.60030828      38.81683561       0.04243942      -0.99300890      -0.32721645       0.71932062       1.30378453       1.00804892
N      -30.19847074     -24.58926446      40.62550140      -1.85721870       0.23502974       0.26705299       0.65404400      -0.41000474       1.74725654
N      -29.88341702     -26.76102834      42.50799672       1.51030274       0.46750161      -0.87866917       1.41445653       0.77470290       0.18043716
O      -35.34528736     -28.31536626      40.66423048      -0.22676206       0.54581327       0.09457856      -1.74902137       0.22554104       0.09438363
O      -34.04074136     -29.56058656      41.74904945      -0.16884806       1.20155452      -0.96229720       0.02357013      -1.43366196       1.36380033
O      -32.87113775     -24.79032769      37.76259898       0.36530091       1.42336617      -0.06182174      -1.03325319      -0.92953295      -1.04800866
O      -31.86197723     -23.46900363      39.06661837       0.84973710       1.20123413      -0.13658587      -0.16319386      -0.73271977       0.17488011
O      -28.84842595     -26.20845086      42.09123604      -0.34453588       0.07788202      -0.61788514      -0.23057324      -0.48674639       1.19906956
O      -29.96475677     -27.40261873      43.55230918      -1.13402708      -0.29487563      -0.25786738       0.89477877       0.02887635       0.05012854
H      -30.92356983     -28.83874568      42.95963551      -0.61255341       0.06606599       0.06187426      -0.45610302       0.22175175      -0.40105211
H      -32.44524611     -29.52976490      42.45350863       0.17819677      -0.12958004      -0.00762930       0.28549388       0.39686605      -0.32970765
H      -34.47363379     -25.79418870      38.49345866       0.07296665       0.08611880      -0.09459145       0.65553793      -0.57954074       1.66971604
H      -35.41719853     -26.53665151      39.66242903      -0.45798129       0.17274963       0.32203740       0.79332818      -0.89286149       0.49790465
H      -29.46690178     -24.62337269      41.33742799       0.06738937      -0.09806047       0.27148736      -0.02947946       0.27766109      -0.71772210
H      -30.49142233     -23.79662773      40.09367756      -0.10091521      -0.07678418       0.07277734       0.16937491       0.51758020      -0.20357286
C      -12.93796222     -20.29520071      10.42692382      -1.30257870      -0.88925598       0.39206899      -0.80262517       1.00244206      -2.10257732
C      -13.99296197     -20.98237169       9.83996030      -0.57286811       0.35917713       0.19027303      -0.87263143      -0.91897700      -2.74537154
C      -11.98338046     -19.66977998       9.56257316       0.39229191       0.12251092      -0.45906878       0.46199045       0.07382019      -2.48817470
N      -12.98412120     -20.00676217      11.66893882      -0.64839927      -0.29263743      -1.67971146       3.88945266       2.50148268       3.58880635
C      -14.03386947       1.05312354      11.71619876       0.39606678      -0.04789664       0.72806706      -1.38997729      -1.39421716       2.21556610
N      -14.97174829     -21.65340241      10.69651668       0.74780649      -0.77984280       0.70679069       1.82612288       0.15027796       0.63274457
C      -13.32921126       2.00072265      10.95468485      -0.02568640      -0.28131989      -0.05790975       0.34022403       0.76941052      -0.37988227
N      -14.82677325       0.08649720      11.22248591       1.85314571      -1.37250570       0.97711926      -2.02148729      -0.95422102       2.12660333
C      -12.19073386     -19.37998006       8.13612186      -0.47226665       0.12116863      -1.49703842      -2.40195083      -1.91174949       1.71546723
N      -13.52811964       2.04742102       9.49616239      -0.78964830      -1.20301541       1.37705644       1.85753310       0.54800968      -1.72981600
N      -11.40133460     -18.59925847       7.46199808       0.11948212       0.35366378       0.14909066      -0.08016902       0.30729264      -0.64182278
N      -10.77225190     -19.29887184      10.10559434       1.55929662      -0.36768978       0.26596547       1.13776040       1.26257536       1.21847361
O      -15.00442450     -21.25434439      11.87642442       0.24705602      -0.27511203      -0.09904157      -1.41373214      -0.68964350      -0.46513471
O      -15.60785287     -22.64399142      10.37227396      -0.09476024      -0.39766025      -1.41043108      -0.30663828       0.42405574      -0.84291574
O      -13.36891849       3.13573647     -14.04437305      -0.94029145       1.97670524       0.16451991      -0.63120095      -2.49948832       2.18935057
O      -13.63716116       0.95558717       8.92316774      -1.71768423       0.80575894       1.35921197      -0.58974825       1.42800294       0.67110050
O       -9.92959085     -18.64605455       9.47938805       1.54610808      -0.48070984       1.70515992       0.19657865      -0.13453332      -0.45771045
O      -10.54307806     -19.56741834      11.28116205       2.96883797      -0.00297760      -0.69453727       0.24717480      -0.49863796       0.21511765
H      -12.16218898     -19.52204768      12.16046683       0.11742856       0.03775287      -0.08222212      -1.92455932      -1.51678851      -1.44979340
H      -13.78976906     -20.26344013      12.17136146      -0.16838274      -0.12347849       0.13301762      -0.68484727      -0.42995915       0.77463984
H      -15.21504296       0.13311234      10.32417202       0.04634573      -0.13949541      -0.21231652       0.23298247       0.33063406      -1.59481304
H      -15.52983019      -0.43329553      11.88208045      -0.11429300      -0.26765777      -0.03581330       2.31781538       1.44030104      -1.09207416
H      -10.56825494     -18.39725723       7.96450628       0.18509715       0.10711558       0.18214989       0.90726251       0.69764453       0.22467572
H      -11.66460991     -18.09132657     -16.24496666      -0.15301172      -0.00118446       0.04432250      -0.26523542      -0.44564913      -0.50551621
C        5.55964259       5.73882964     -14.29704697       2.23057022       0.36191622      -0.25816100      -1.05788266       0.37926077      -3.74395459
C        6.85513660       5.56479061     -13.83906860      -0.03774878      -0.45114194      -0.15580442      -0.84573723      -0.68810960       1.83605895
C        5.35497361       6.76137698     -15.40711360       1.09198678      -0.27271983      -0.77039725       0.94813200       1.32877910       1.54011505
N        4.58159067       4.89081717     -14.03478839      -0.52987581      -0.99055977      -0.07151760       1.25344286       0.88775526      -0.01322097
C        7.85059898       6.51382602     -14.04519020      -1.97489716       1.22327332      -1.32059517       2.47748103      -0.14723966       0.67020006
N        6.95703190       4.59353433     -12.70368616       0.44088721       0.28412318       0.45045793      -0.34030106       0.88147119      -1.65837703
C        7.59655910       7.66850884     -14.76729570      -0.20605893       1.28651158       0.49009610      -1.81881890       1.50094095      -2.34150764
N        9.10466504       6.28671691     -13.56988313      -0.55727239       1.39158318       1.19821191      -4.00556062       1.59010836      -1.54929149
C        6.30899575       7.84211158     -15.52989413      -0.23355567       1.11166841       0.50406928       2.23744576       0.15564310       0.46821466
N        8.64329955       8.65550592     -15.01157971      -0.30839661      -0.35895558       0.27556531       0.27350525      -2.73933953       1.97316616
N        6.20855720       8.93102795     -16.33337641      -0.45154085       0.21562828      -0.06785801      -0.33056803       0.13455339      -0.33751116
N        4.12127023       6.99179699     -16.10608234      -0.07032879      -1.90459185      -0.08986658       0.22755785      -2.72664025       0.50635457
O        7.66741200       4.82857643     -11.77429779      -0.27288941       0.16021623       1.44042987       1.41673081       0.51372037       1.15068182
O        6.25009096       3.60857227     -12.75895356      -0.13182491      -0.95746119      -0.74642054      -0.06136305      -1.10707014       0.16284421
O        8.39348708       9.75773152     -15.36276806      -0.53662286      -1.93368350       0.19315949      -0.48184212       2.42528037      -1.09715630
O        9.80169156       8.33301843     -14.70178119       0.44594611       1.09499288      -0.04562783       0.26833432       0.48170458      -0.59877532
O        3.94912228       8.08082872     -16.62151122       0.67949605      -0.43051592       0.64898977      -1.59774326      -0.40505838      -0.30684949
O        3.34788891       6.00561780     -16.22847728      -0.83401665       0.66067196       0.58751933       0.66028410       1.83417085       0.24254100
H        3.72026311       5.02417363     -14.42056539      -0.09788925       0.22341178       0.61966849      -2.47323539       0.77213768      -1.40206925
H        4.62959830       4.27671112     -13.28243955       0.32425739      -0.01126799       0.16053720       0.38048380      -1.07961220       1.03603540
H        9.75244712       6.95016629     -13.79078179       0.33817701       0.33554087      -0.10604784       2.07392699       1.63332438      -0.43849134
H        9.26757592       5.53856707     -13.05335085       0.26784032       0.14513630      -0.03775528       0.74940693      -3.56740110       2.74777120
H        5.33430583       9.03734113     -16.85234024      -0.30117521      -0.19389934      -0.00499315       0.51523538      -0.20970131       0.43716259
H        6.90232691       9.69698544     -16.46531740      -0.08775948       0.15248970      -0.11992412      -0.59276037      -1.68028913       0.83083435
C      -19.38122620      36.62226226      41.22461681       0.36257044       0.45771268       0.90792962       0.46966041       0.26574539      -0.59919189
C      -20.63445653      36.54204317      41.91718050       0.04162976      -0.36699488      -0.53940771       2.81302885      -0.75252297      -1.28598490
C      -19.26691390      35.69890725      40.13973758      -0.11558985       0.32208065       1.10639705       0.37131375      -0.93676991      -0.35298578
N      -18.44131499      37.56919385      41.46993325       0.34997085       1.55157791       0.27154848      -1.05978979      -1.13559048      -0.66443941
C      -21.35890672      35.38052150      41.77259197       0.66446355      -0.71375111       0.03405425      -4.60890015      -1.02072208       1.85840296
N      -20.74455044      37.35356126      43.04018839       0.72436170       0.58519677      -0.47962026      -1.76603174       1.04806772       1.42168740
C      -21.13406080      34.35849564      40.83445606       0.32375709      -1.59141592       0.30277046       1.81388818      -0.57841439      -1.94540098
N      -22.43398883      35.18759343      42.62207752      -0.89492381      -1.49068761       0.27776905      -0.60184059      -0.64331824      -0.64547800
C      -20.06743802      34.53397617      39.88230705      -1.01206564       0.44305712      -0.42393032       0.33502509       2.34951050       0.96727896
N      -21.76949431      33.09057272      40.79982390       0.77111211      -1.46968748       0.47211521      -0.88676822      -2.34749238       1.00555821
N      -19.82687576      33.76300979      38.80887791       2.16275908      -0.10690903      -0.36695990      -0.41422791       0.68786271       1.42948212
N      -18.18772235      35.97549934      39.16758317       0.22998636       0.47448689      -0.25212038      -0.10588418       2.78602763      -0.71487352
O      -19.69920256      37.69935923      43.58449619      -0.95029818      -0.82451156       1.08783755      -0.94701490       0.26859774       0.72077523
O      -21.88183692      37.68018982      43.42524451       0.11512669       0.38296655      -0.54289052       1.52949868      -0.20391225      -0.04502163
O      -21.25664428      32.11848834      17.29348996       0.17632032       1.26120528      -0.71101801      -0.13651339       1.44724729       0.08465254
O      -22.79631516      32.83796893      41.43947809       0.55846192       0.03421505      -0.77646298       0.32568122       1.09973756      -0.06608438
O      -18.51530472      36.33575820      38.03929253       0.49459798      -0.00711519       0.78094405      -0.37690026      -1.00148140       0.82616838
O      -17.04768384      36.15394448      39.58079962      -0.48083325       0.73321990      -0.14660408       0.09331206      -0.98278916       0.23708118
H      -17.59468968      37.43862757      40.98142488       0.10080183       0.15511410       0.39444410       0.80137325       0.08276863      -0.27758103
H      -18.42836660      38.08557531      42.33362716       0.07001813       0.25273012       0.03655155      -0.27020978      -0.20431428      -0.18693034
H      -23.15443590      34.49142479      42.36033986      -0.22209226      -0.33067937       0.06358517       1.23650011       0.56480964       0.16587818
H      -22.83677785      35.97753905      43.08993867      -0.28179299      -0.05702704       0.15760502       0.39526920       0.30926663       0.01581557
H      -18.83777664      33.69656652      38.63966091       0.66776482      -0.08692256       0.12871125      -0.15473823      -0.58638301      -0.82627488
H      -20.43741726      32.95673314      16.01678713       0.11660565       0.10222818       0.27928994       0.95018534      -0.48695090      -0.80955234
C      -68.64636169     -44.06421213      54.52142237      -0.15600899       1.12437685      -1.28529413      -0.22944143       0.60803860       1.74349722
C      -70.06966941     -44.18652427      54.72741316       0.83960478      -1.38732858       0.27669608      -0.17646213      -1.85001770      -0.53088702
C      -68.18959868     -43.02009939      53.68913361       1.28503292       0.72653232       0.95245490       3.28830062      -0.34757228       0.21911684
N      -67.71748067     -44.65808153      55.22090203      -0.05095242      -0.29943536       0.09042430       3.49326524      -0.45004358       0.36186614
C      -70.91710232     -43.81677182      53.65602748       0.68999369      -0.46189351       0.24663191      -1.93026992      -0.04802072      -2.09073306
N      -70.54787289     -45.06649150      55.79308354      -0.64767611      -0.90540787      -1.22205096      -1.08260428      -0.05143458       1.73405055
C      -70.38303039     -42.68579050      52.83191188      -0.77586238      -1.39120836      -0.18029616      -2.25197111      -2.52915659       2.07784027
N      -72.11781071     -44.53296225      53.38134912       1.57763042      -1.82901871       0.02595531       2.56325389       1.28075328       1.15547170
C      -69.05969175     -42.20585706      53.06088296       0.60882106       0.51526125       0.43151246      -1.85735657       3.04763301      -3.41745780
N      -71.36930852     -41.95834133      52.11744611       1.28718647      -0.25138823       0.93993350      -1.25196474       0.05086209      -1.24589439
N      -68.69665685     -41.07785342      52.37564545      -0.11840027       0.06053851      -0.84215909       1.95821970       0.30674942       0.86208959
N      -66.70277905     -42.66130641      53.60156067       1.55996158       0.39250971      -0.05588499      -0.50147262      -0.77896564       1.33514872
O      -69.71887555     -45.34237511      56.65684735      -0.17927706       0.24308183      -0.33587674       0.03773810       0.08854905      -0.26397953
O      -71.75167774     -45.39757063      55.99213146       0.00258511      -0.62364299       1.52829350       1.99467032       0.86588356      -1.68847803
O      -71.19852479     -40.75102836      51.97679686      -0.55505708      -0.40476834      -2.09856866      -0.35579570       0.11824703      -0.15697519
O      -72.37994036     -42.52381298      51.62745606       0.46807929      -1.33314298      -0.06078507       1.71793627       0.44402596       1.12574417
O      -65.84127880     -43.52202336      53.92052896      -0.23397105       0.38941085       0.41704521      -0.78492515       0.61647078      -0.69506530
O      -66.34207966     -41.54450083      53.33346450      -1.31433839      -2.19769114       1.38788837      -0.21127971       0.08216712      -0.35962836
H      -66.70835466     -44.35267656      54.94894207      -0.14239282      -0.46815376       0.25032776      -2.52067165      -1.23098056       0.91447835
H      -67.79624045     -45.33078125      55.97151926       0.14012828       0.14476040       0.09037346      -0.87336586       0.31972395      -0.59495479
H      -72.87757417     -44.14963672      52.82058146      -0.33419443      -0.19042275       0.25517510       0.91053400       0.00953883       0.21154593