1296
Lattice="-49.66416562208116 -16.971952323883468 10.456172577267234 0.0 16.451849100952497 15.327322523048583 0.0 0.0 -28.779658308921768" Properties=species:S:1:pos:R:3:momenta:R:3:forces:R:3 energy=-1487780.8899105617 free_energy=-1487780.8899105617 stress="0.003560999889306863 -0.0001831355537205961 -0.0012325168403399527 -0.0001831355537205961 0.0028065095059134257 0.0004658474018536543 -0.0012325168403399527 0.0004658474018536543 0.0008878881433377211" pbc="T T T"
C      -36.13769988     -20.70168157      -9.13002206       0.09973274      -1.30479254      -0.41927826       1.51383313       1.35323249       1.27258015
C      -36.28385142     -20.04326220      -7.80628540      -0.56123866      -0.20337614       0.97227809       0.42696756      -1.44021298       0.61726643
C      -35.65363886     -22.03007261      -9.18107517      -1.05988899      -1.33309996      -0.01208193      -0.89871428       2.25590602      -0.07897175
N      -36.20018307     -19.90897077     -10.18781247      -1.25844476      -0.78368998      -0.29041644      -2.33217162       1.66987848      -0.21171158
C      -35.76645146      -4.28747345       8.76532329      -0.77087672      -0.55010326      -1.21784486       0.13238502       0.93993242      -2.03800404
N      -36.72080173     -18.64266943      -7.76908227      -0.67262519      -0.93236998       1.18623481       0.03221693      -2.46065980      -0.25228102
C      -34.99966126      -5.53951053       8.52189162      -0.13434622       1.29077298      -0.55688972      -0.98699126       2.31814312       1.52027482
N      -35.89490639      -3.73844914       9.98847896       0.60671026       0.51448759       0.29149933       0.20072684       0.72562971      -1.78443472
C      -35.09558331     -22.62232131      -8.04573078      -0.56546445      -0.12032553       0.90726399       1.11194569      -1.64978660      -1.56605228
N      -34.00721723      -5.96666592       9.49602572       0.03859602      -0.04098037       1.36507162      -1.82744446       0.91309368       0.12907221
N      -34.46757784     -23.77621970      -8.23265414      -1.51324499      -0.84474147       0.25088451       0.66516999      -0.18570476       0.50910368
N      -35.69410543     -22.72239603     -10.42045846       1.66090302       0.51094898       0.31076288      -2.78907178       0.12638870      -1.33408345
O      -37.30671837     -18.14877380      -8.72667677      -0.28331799       0.14245243       1.51022559      -0.49851127       0.22640007      -0.97753429
O      -36.54554204     -17.99261998      -6.78314527      -0.90015137      -1.08818654       0.48546183       0.67479291       0.86646087       2.28554806
O      -33.22377070      -6.86337413     -19.54113229      -0.85575437       1.46768272      -0.35060523       0.73214690      -0.26617463       0.33561673
O      -34.00894878      -5.38699186      10.57976999       0.33795987       0.14244640       0.13850934       0.48263707      -0.29126776       0.06252019
O      -35.92198846     -22.18254961     -11.53440070       1.42818493       0.19666442       0.27286854       1.34385687       0.07263773       1.74062070
O      -35.82892799     -23.92814878     -10.30746613      -0.12601733       0.06930767       0.54235388       0.64029435      -1.23271967      -0.58694899
H      -35.99237169     -20.20070686     -11.14545870       0.00389797       0.01073358       0.21057504      -0.42272232      -0.28389521       0.86400752
H      -36.87519563     -19.07815189      -9.95340192       0.27440921       0.02151811      -0.40546656       2.04248517      -1.83610624      -1.05886595
H      -35.30334675      -4.23567976      10.63147270       0.04092441       0.13472643       0.08724418       0.01123214       0.36377723       0.85145575
H      -36.03405936      -2.70064896      10.02196749       0.05785902       0.25467234       0.29421447      -0.10024987      -1.62300351       0.01645618
H      -34.41652045     -24.18670490      -9.16566675      -0.05272942       0.08773401      -0.04493340      -0.19381217       0.06401613       0.96543745
H      -33.80212652     -23.90861789     -36.25362556      -0.09916112       0.18562000      -0.00779738       0.12535363      -1.05865959      -0.81546969
C      -54.99176912     -10.81583667     -21.76628973      -1.48654059      -0.00515245      -0.25861107      -2.06889104       0.95394928      -0.85679024
C      -56.38009550     -10.61922835     -22.10952829       0.70516502       0.53981857      -0.82679807       0.15166456       0.91220565      -0.99493488
C      -54.29558700      -9.75624850     -21.12470606       0.64947556      -0.31577160      -0.83710560      -1.70349732       0.49496154      -0.23824299
N      -54.41655587     -11.93115953     -22.02309210       0.41940397      -0.48737499      -1.81743061       1.96392429      -1.79691095       0.57014546
C      -57.03370220      -9.33376268     -21.93468083      -1.49011031       0.39870341      -0.64513550      -1.09527790      -2.82373624       0.82644065
N      -57.04281154     -11.66509940     -22.92599752      -0.39545100      -0.27820747       0.10934402       1.97269536       1.19930489       1.76770045
C      -56.17714324      -8.20061363     -21.71090994       0.06687935      -0.66351118       1.40399054      -1.71640860       0.13467217      -0.38335776
N      -58.39859649      -9.34860784     -21.83906656       1.55512212       0.94379838       0.61106533       2.73503998       2.33946375      -0.12407133
C      -54.86623919      -8.42606612     -21.24032212      -0.50740047      -0.24248558       0.25888826       2.32534593       1.06936285       0.00862637
N      -56.81946119      -6.88570827     -21.96161003      -0.52848501      -1.50673987       0.12264738       1.13689316       0.04007328       1.59865117
N      -54.08382655      -7.36549245     -20.99073434       0.68226242       0.20586174       1.06251668       0.33440863       0.72969562      -0.04344259
N      -53.06202120     -10.02780502     -20.56722907      -1.01117916      -1.01336728       0.61759118       2.35680974       1.14243154       0.64066171
O      -56.33796831     -12.36379989     -23.63890905       0.33883875       0.46515368       0.89393868       0.06082901      -0.44817727      -0.64825200
O      -58.22491712     -11.82229910     -22.82066863       0.61068761       0.21812451       0.99825062      -1.97987220      -0.10752409      -0.16185796
O      -58.05125414      -6.91404731     -21.97896747       0.59201026       1.04321881      -1.16082864       1.01501120       1.48200423      -0.50738982
O      -56.14284879      -5.83296090     -22.02217921       0.02533101       0.85415668       1.05814644      -1.12836058      -2.09704532      -0.07071827
O      -52.46195771      -9.08715535     -19.98355923      -1.62029413      -2.07825678       1.09031024      -0.45939615      -1.93980242      -0.73296039
O      -52.52884309     -11.17312824     -20.67653278       0.97034820      -1.16824241       1.04931157      -0.37477873       1.95293202       0.98333223
H      -54.87341410     -12.52921060     -22.69859836      -0.16794481       0.00452185       0.17844275       0.22943825      -0.28164743       0.34907422
H      -53.48971052     -12.04097092     -21.51137905       0.18755947       0.05614625      -0.39900541      -1.36048026      -0.18757389      -1.37966583
H      -58.75744468      -8.41374159     -21.65210295       0.21609220       0.23115448       0.10017041      -0.39393647      -0.68979369      -0.46915155
H      -58.90014373     -10.08990864     -22.23557969      -0.37501958       0.07905582       0.23558714      -0.56617663      -1.03070616      -0.16840764
H      -53.07034634      -7.40255307     -20.78738477       0.06078091       0.33917570       0.26830768      -1.41248025      -0.73254383       0.06438277
H      -54.47494038      -6.44415662     -21.14540187      -0.19256788      -0.13938679      -0.48394587      -0.14481303      -0.32524051      -0.08966169
C      -50.48643175     -15.97156519     -50.22348489      -0.04552588       0.82652257      -1.47912713      -0.99702116      -0.51855216       0.00980342
C      -49.65061257     -14.90874430     -49.94523329       0.67512791       0.69052309       1.70936547       0.65684555       1.73140270       1.33005075
C      -51.85005917     -15.90459510     -49.88512764       0.22321123       0.74616567      -0.62783758      -3.37555141       0.01517559       1.89621524
N      -50.11669310     -17.05073862     -50.86993878       1.03855952       0.66265466       0.59547017       0.66371595      -3.12906416      -0.25564614
C      -50.10195824       2.48882101     -33.60224292       0.61356879       0.49741994       1.08842756       0.65110048      -0.03079779      -1.51505093
N      -48.24585206     -14.84698844     -50.42708948      -0.16978740       0.54391797      -0.11680798      -1.56343062       1.90662876       0.62032601
C      -51.39757589       2.35597362     -33.03884325      -0.30562742      -0.40377425       0.29017736      -1.61247246      -0.98617778       0.94606404
N      -49.35489402       3.52465580     -33.26946726      -0.41256194       0.55215881      -0.80780218       2.30710213      -0.53087810      -0.86469193
C      -52.38863734     -15.02701213     -48.84105967       0.51411354      -0.47887938      -0.11079828       3.89926975       0.56514250      -2.21364518
N      -51.76266391       3.04698314     -31.82264116      -0.10977977       1.31172918      -0.21646787       0.04440579       0.92084745      -0.55153199
N      -53.58070542     -14.99016719     -48.40188631      -0.41285405      -0.97561956       0.77675937      -2.44451431       0.78565525       1.59124219
N      -52.83506734     -16.90752681     -50.26293887      -0.96727329      -0.27172283       1.02494000      -1.45159895      -1.13371250      -1.64561920
O      -47.73497914     -13.70825076     -50.52647474       0.53377210      -1.07625229      -1.39422550      -0.45400507      -1.75608044       0.09444426
O      -47.68293315     -15.87222322     -50.70876338      -0.54664477      -0.54331339      -0.80238998       0.61552550      -0.50401526      -0.41449619
O      -50.82804631       3.52958155     -59.99495830      -1.65975523      -0.03164516      -0.62300919       0.57003738       0.59100837       1.28646282
O      -52.92712580       3.24530576     -31.41793278       0.11178915      -0.36979230      -1.70616532       0.89673093      -0.60231411      -0.54975501
O      -54.07536038     -16.65087969     -50.17070330      -0.63757715      -0.66209472      -1.06206564       2.27728914      -0.13771109      -0.06308346
O      -52.52874419     -17.99349727     -50.78707293      -0.57313754       2.00797435       1.65573008       0.36851957       1.14490390       0.82064777
H      -50.56028713     -17.94699456     -50.58000218       0.09683601      -0.09808700       0.28314501      -0.05976927       1.43479548      -0.86199007
H      -49.14111689     -17.18507636     -50.95928735      -0.06665252       0.09050066       0.30545803       1.00320560       0.19984269      -0.29035137
H      -49.73123484       3.96619833     -32.46446865       0.30472005       0.07889666       0.26268608       0.58196186       0.89349424       0.68424428
H      -48.34305510       3.56923173     -33.60871132       0.20668044      -0.34177639      -0.17876443      -2.35496218       0.10415087       0.62385487
H      -54.30782095     -15.44401659     -48.90468859       0.13149063      -0.28957730      -0.58292508      -0.27714004      -0.60520285      -0.21152676
H      -53.81005261     -14.34016771     -76.40726892      -0.30439086      -0.03021923      -0.00510816       0.22539259      -0.45818439      -0.65800938
C      -37.26047509     -18.74136219       3.05653381      -0.36165952       1.62754179      -0.54748931      -0.91397835      -0.13520528       1.14578300
C      -37.35872609     -18.11131531       1.83357711       1.45121366      -0.04878022      -0.42208339       0.91898477       0.06488606      -2.34068329
C      -36.16859348     -19.56079074       3.36630459      -0.45752619      -0.53063500      -0.59860113       2.60232825      -0.46970399       1.12891942
N      -38.23446875     -18.58806792       3.93915960      -0.11831701       0.03426582       0.86714285      -0.76034610      -0.56095397       3.20250870
C      -36.41638708     -18.33924642       0.75056370      -0.83521926      -0.73066993      -0.10816114       1.43953051      -2.91630405       2.70766783
N      -38.52855110     -17.34008240       1.49638089       0.12099455       0.57178870       0.69768527       2.23288754      -0.61254940       0.01440776
C      -35.29410931     -19.25016811       1.06651024      -0.84976364       0.50655388      -0.71733167      -1.01656631       0.41436203      -0.05607745
N      -36.61121998     -17.79881052      -0.42063221      -0.67962519       0.29795632      -0.55484471       0.48631935       1.67977603      -2.13024393
C      -35.07322128     -19.68916079       2.48785717       1.82104981       0.42539412      -0.73724516       0.20719385       0.37258477      -2.65754276
N      -34.36288245     -19.78865342      -0.07158175       0.30175961       0.30690554       1.34168505      -2.05080500       1.85168670       1.88674466
N      -33.87862640     -20.21573484       2.76673859      -0.54170102      -0.22739368      -0.43396726      -2.08860426       0.15362596       1.91550705
N      -35.92537057     -20.08676062       4.78458498      -1.86280357       2.04603272      -0.45326641      -0.00557045       0.82446484      -2.62091358
O      -39.02018031     -16.60066557       2.27091152      -1.17214370      -0.14855636       0.33388506      -1.52904351       1.62678328       3.12861882
O      -38.88218809     -17.36457362       0.35834856      -0.41994726       0.44100507      -0.14006303      -1.58117334      -0.47754784      -2.91444971
O      -33.20946879     -19.93011434       0.26718963      -1.29273976       0.45387855      -0.89580338       0.88816553      -0.45463018      -0.58320925
O      -34.80690851     -19.96457602      -1.19148695       0.37424419       0.45369179       0.74425716       0.14555868       0.19119523       0.56756187
O      -34.82197989     -20.17221312       5.25669729      -1.09508994      -0.98964336      -0.11248983       1.35466488       0.27827503      -0.12838393
O      -36.90101037     -20.44464286       5.35774366       1.60658284      -0.49636887      -1.98982095      -2.50144133      -0.74947467       1.49852192
H      -38.16059902     -19.06680600       4.88311049       0.38603535      -0.22829042       0.29084403      -0.22454522       0.62843719      -1.80541864
H      -38.93462534     -17.85660468       3.90421838      -0.31182703      -0.15078904       0.23026351       0.41647985      -0.17172631      -0.53107332
H      -35.89296224     -17.60025227      -1.09110670      -0.19369558       0.16106830      -0.03669511       0.71207257      -0.98766231       0.11473552
H      -37.32684077     -17.10346149      -0.52585965       0.20383413      -0.25007931      -0.36357083      -0.48073355      -0.35026384       0.20275857
H      -33.54649789     -20.43416903       3.68050122       0.26091492       0.03627369       0.06011228      -0.54869799      -0.15510542       0.47881624
H      -33.23449667     -20.13182050       2.07420994       0.05740678       0.14844884      -0.03797933       2.03093576      -0.07992636      -2.28736804
C      -18.52334559      -5.32651410       3.73015312       0.96390084      -0.14470700      -0.74599532       1.41619602      -0.19018085      -0.63730201
C      -19.88285716      -5.44222211       3.23910878      -0.91876279       0.15863046       0.62524479       1.94709826       0.01858004       1.25399120
C      -18.23035102      -5.52063700       5.10918425      -1.24161393      -0.75997930       0.62843947       2.06013824       0.19223419      -0.88368111
N      -17.52044274      -5.06751654       2.87370126      -0.16480117       1.36951740       0.66178599       1.32068862       0.72253417       1.43395966
C      -20.96193961      10.69214556      19.45284478      -0.52461847       0.68051894       0.38815986       0.20750406      -1.12011875       0.45107355
N      -20.16246713      -4.89629557       1.97643104       0.10192811      -0.14115562       0.37554339       1.70212659      -0.21191701       0.58198961
C      -20.61683135      10.55747879      20.84502977      -0.02148714       1.26645273       0.60307254       0.31273890      -0.32868375       0.09621238
N      -22.19448456      10.38298665      18.99720244      -0.36676529      -1.15052843       0.07654023       1.76533546      -0.19760508       2.73763415
C      -19.22937832      -5.80656474       6.01099611       0.44781610      -1.60545028       0.14520585      -1.77054242       0.71942158       2.89597200
N      -21.70360746      10.31280188      21.75510677       1.34612708       1.86854611       0.19100649      -2.17406914      -0.99440236      -0.26267538
N      -18.94589162      -5.86633521       7.34281041       0.94393901      -1.59341566       0.63272812       0.20643258      -0.28253365      -2.30115299
N      -16.81093470      -5.38528296       5.56674030      -0.69876751       0.93910174      -0.26735419      -1.15683971      -0.85041064       1.84293998
O      -21.23633502      -4.37995598       1.90204008      -1.40978098      -0.40536831      -0.15192656      -2.29316581       0.97694483      -1.18474231
O      -19.30717934      -4.84381585       1.06666113      -0.54578434       0.86435877       0.75064918      -1.09895188      -0.05693740       0.25917121
O      -21.68204868      10.54733356      -5.83000686       0.67207156      -0.44218225      -0.43787306       1.55597152       0.64382868      -0.19100995
O      -22.80092953       9.82117556      21.31692771      -0.15858857      -0.20384860       2.28177554       1.45437768       0.42725330       0.33999020
O      -16.57989946      -5.51074854       6.81284614       0.49799294      -0.61042576       0.64957299       0.26975355       0.41794823      -2.43606656
O      -15.90476292      -5.21596597       4.78293471       0.39645994      -0.35833063       0.89505249       0.08243153       0.23252874       0.26052480
H      -16.49928073      -4.79756671       3.10715364      -0.34712862       0.23884854      -0.25627542      -2.98567364      -1.01935641      -0.07923189
H      -17.86556249      -4.97542432       1.96609359      -0.30150239      -0.01381334       0.40959052       0.44094083       0.12115581      -1.52081329
H      -22.82530246      10.07619018      19.75696533       0.07552580      -0.10526306      -0.02861583       0.07199521       0.27428181      -0.97842811
H      -22.40757208      10.80010495      18.16336092      -0.01956201      -0.17837760       0.45267415      -1.08106780       0.70119900      -2.16536144
H      -17.97485854      -5.67779086       7.61878557      -0.02864905      -0.28153696       0.28025900      -0.73806727      -0.16226080      -0.26221584
H      -19.69469268      -5.84011261     -20.81983322       0.27525464       0.08547560      -0.36488076      -1.27676645      -0.05786282       1.06318849
C       -0.49452636      18.48894709      -3.97796004      -1.67411256       1.05599569       0.45408807       1.15447984      -0.90395074      -1.74869470
C       -0.24994034      17.10097166      -3.74603496       0.00093296      -0.57640961      -0.88928168       1.72623156       0.44438084      -1.00570198
C       -0.49359475      18.86939899      -5.34419240      -0.11666947      -0.26099391       1.28910563      -0.05572405      -0.60985801       0.35425027
N       -0.58209399      19.32289833      -2.89389864       0.97275098      -1.95568217       0.72376445      -2.90444437      -2.46882968       1.98143820
C        0.23175210      16.17765514      -4.76297225      -0.68431415       0.86708868       0.57022037      -1.34557031      -0.35555496       0.78434586
N       -0.28924096      16.75753554      -2.33524691       0.96573284      -1.17917706      -0.78978694      -0.64784481      -1.07880604      -1.46372679
C        0.26697035      16.71054580      -6.07711825      -1.36016020       1.23427440      -0.91598353       0.99619123       0.15594630      -2.41636743
N        0.41330230      14.85450655      -4.46125521      -0.52931665       1.18602369       1.03956814       0.86905706      -0.81111555      -0.54512952
C       -0.09849164      18.00273468      -6.45779242      -0.96569674       1.19956431       0.08454607      -0.59729730       2.08003613       3.35739290
N        0.67514604      15.92034094      -7.27349409       0.81340005      -1.29300216       0.85359363      -1.72863696      -3.66233352       3.36700117
N       -0.01273073      18.48848251      -7.67877607      -0.36760087      -0.20171566       0.78721148       0.35548697      -1.06474441      -0.27697102
N       -1.01018036      20.14924954      -5.65385462       0.06692229       0.08059453      -1.08634058       0.81126565       0.13636404      -1.77983505
O        0.61789332      16.19861814      -1.77720146      -0.10073113      -0.42209852       0.90888015       1.02947083      -0.43672020       0.11228750
O       -1.35919420      17.00089143      -1.83520763       0.41817166       1.48800093      -1.53386945      -1.18491900       0.26206383       1.41128541
O        0.42745163      14.70724037      -7.10359403       2.25532695       0.03426047      -0.99457589       0.74785980       1.06784116      -1.01146175
O        1.12964645      16.34665994      -8.29579107      -0.43133717       0.44050298       0.20526695       0.90910380       0.48849694      -0.84287696
O       -0.97233468      21.05565159      -4.84765615       0.08302297       0.95223973      -0.39582080      -0.39070329       0.47093596       0.15912140
O       -1.38771202      20.28349441      -6.82461450      -1.10404935       0.73884334       0.79426431      -0.80889840       1.13616062       1.07742471
H       -0.75302489      20.29314845      -2.89404501      -0.12438664       0.09998461       0.51976311       0.13937764       1.01257366      -1.37614658
H       -1.39296178      18.90246594      -2.33335834       0.36988871      -0.20857794       0.18639114       2.03365559       0.75886116      -0.27770943
H        0.63969519      14.02430612      -5.08019584      -0.34138755      -0.13986733      -0.19003144      -0.60480668       2.48503710       0.23757482
H        0.79877649      14.66039992      -3.56563858      -0.15706614      -0.03712929       0.14712032      -0.13627643       0.31411387       0.90058664
H       -0.50537350      19.27142838      -7.99016513       0.23078466      -0.22485984      -0.63157293      -0.69498294       1.35102297       0.13792445
H        0.42853461      17.90618897      -8.32616558      -0.03499387      -0.21670543       0.14480119       0.71371602      -0.55042728      -1.17424839
C      -33.99334706      23.86205654      42.82712685      -0.17682827      -0.21562053      -1.34010481       2.22243046       1.23292235       1.01044005
C      -33.33912086      24.39051660      43.96314259      -1.10061113       0.62692287       0.30420096       1.74523519      -0.54263761       2.68331265
C      -33.29341197      22.84688909      42.21569377       0.42940427       0.35495396      -0.41932813      -0.78772470      -3.25571716      -1.56162656
N      -34.96633895      24.51511305      42.31554203      -0.81491051      -0.26474860       2.82407645      -3.78243543       4.13030822       0.90331008
C      -32.41652413      23.54747447      44.75573794       0.12460978      -1.57820399      -0.67417399      -1.25807241       2.49281781      -1.64538511
N      -33.59162940      25.65632214      44.55343892       0.58107484       1.39364298      -0.51038086      -4.74594578      -2.55553032      -4.23090179
C      -32.07730011      22.36850210      44.23698756       0.06813548      -0.81054939      -0.40408505       1.34755259      -5.43411958      -2.66463733
N      -31.80744264      23.83186272      45.86509927       0.19309733       1.48039957       0.21065515       0.82573109       1.40040656       2.12639644
C      -32.45818370      21.95508799      42.89873393      -0.01105760      -0.20083916      -0.88076205       1.57610150      -0.63244899      -0.60331771
N      -31.11716870      21.41255716      44.93229649      -1.41589704      -0.79616308      -0.48602336      -1.04205004       1.97914247      -1.72472816
N      -31.97441211      20.86119441      42.19137575      -0.22901940      -0.19868730      -1.06638632      -0.09187307       0.95351159       2.80068499
N      -33.95207932      22.25781351      41.01900691       1.01979815       0.58895869      -0.94430307       0.17221792       1.75956504       0.45797546
O      -32.99278885      25.98049139      45.49507295      -0.10700939       0.70090525      -0.63548464       1.72702159       2.74715487       3.05015669
O      -34.61727922      26.27757554      44.07826879       0.97991878       0.64894177       1.17688853       1.69960743       0.51391972       1.49808224
O      -30.24143576      21.77811250      16.91352992      -0.00139087       0.05954022      -1.55816496       0.16491942       0.64467654       0.84732153
O      -31.21098772      20.28281635      44.56949060       0.38574375      -0.04188562      -0.70613555      -0.17319356      -2.39602807      -0.05857019
O      -35.13782705      22.46053193      40.92635625      -1.36928555       0.25985446      -1.28538785      -1.56322359      -0.43247739      -0.15185670
O      -33.34511881      21.70318135      40.13643954       0.05310544      -0.87361612       0.31427456       1.22560486      -0.72375995      -0.50776719
H      -35.61410351      24.13234602      41.66935914       0.33608245       0.39297236      -0.10181916       0.11948014      -0.45196011      -0.52825186
H      -35.27183672      25.40706175      42.89612704      -0.03634947       0.07810085      -0.27046875       1.14685304      -2.42635388      -1.67735278
H      -30.99551714      23.23158740      46.05950818       0.35475417       0.18222692       0.59314455      -0.45128429       0.61095143       0.42812630
H      -31.96346005      24.73834485      46.27338589       0.04978298       0.24290024       0.48437254       0.29181260      -0.28176066       0.09776240
H      -31.95320238      20.81660694      41.20911279       0.04641648      -0.31504297      -0.20194485      -0.49077472       0.38731124      -0.79886634
H      -31.49226529      20.13772978      13.90807285       0.04269739       0.46686047      -0.00273966       0.06820371       0.17971472       0.13890258
C      -69.86162346     -11.44216202      -3.22063488       0.46734036      -0.36994782      -0.41610083      -0.17594669       2.31637402      -1.28312395
C      -70.47710903     -10.45995070      -4.12041167      -0.86482219      -0.47392120      -0.09301228       0.33501756      -3.20376141      -0.44076025
C      -68.58666532     -11.99304577      -3.58160597       0.64401715       0.75961465      -0.61155931      -1.36502402       2.50800416      -1.86130199
N      -70.44077542     -11.53628448      -2.03282462      -0.79026476      -0.74691365      -1.21996538       0.08090923       0.05309949      -0.13637154
C      -70.20163504     -10.45753475      -5.54213591      -0.14218586       0.20907035      -0.37369678      -0.38481136       1.65015802       2.04334817
N      -71.83289662     -10.12442566      -3.64841690      -0.33019495      -0.35006945      -0.55537730      -3.59114237       3.09398934      -0.53905063
C      -68.97131205     -11.14097614      -5.88771925      -0.63272639      -0.73131183       0.17033560       0.86387848      -0.56616851      -0.63185237
N      -71.01500669      -9.65826262      -6.31947089       0.61212555      -0.14961467       0.06462853       2.51715123      -2.77162431      -0.77510399
C      -68.06429255     -11.71824176      -4.89074481      -0.41250181      -0.24259363       0.63822419      -1.19330654      -1.58634161       0.32895440
N      -68.64891842     -11.37320782      -7.31570500       0.28775436       0.42867738      -1.46035204       0.17768633      -0.34641305       0.10974271
N      -66.86396573     -12.23759740      -5.25044809       0.46832107      -0.34015070       0.81721954      -0.74568980       0.76843120      -0.65915504
N      -67.97412698     -12.84223920      -2.69569880       0.36639510       1.54455301      -2.42699713       1.90407250      -1.86760407       0.23052870
O      -72.86689531     -10.89370889      -3.80821458       0.15136192       0.25968326       0.30663156       4.37204653       2.62808930       0.78380340
O      -71.91590422      -8.90465249      -3.20021283      -1.15507231      -1.86323435      -0.53928447      -0.06127363      -4.57553022      -1.25061226
O      -67.90763765     -12.30628971      -7.70367983       0.51132435       0.36849911      -0.13184114      -1.00943482       1.50982931       1.00271393
O      -69.17644755     -10.61848567      -8.13350379      -1.31827830       0.11000937       1.45879017      -0.19837418      -0.16878248       0.40033368
O      -66.71430069     -12.99206707      -2.72374901      -0.35157469      -1.36369662       0.71198771      -2.23859185       0.18622818       0.53914484
O      -68.74074559     -13.48132861      -1.97587461      -0.23559784      -0.18339272      -0.53933209       1.18171379       0.06605336       0.24256895
H      -70.31620641     -12.29336407      -1.44279298      -0.29381830       0.08045499       0.18136363       1.02951567      -1.69158673       0.86714647
H      -71.29867421     -11.09950930      -1.83724243      -0.20582083      -0.11135785       0.03484912      -0.86963747       0.81786157      -0.14273026
H      -70.70998087      -9.69264267      -7.31200971       0.65706278      -0.20321499      -0.27157502      -0.73174785       0.54817044       1.11828995