24
Lattice="13.9116 0.0 0.0 0.0 13.9116 0.0 0.0 0.0 13.9116" Properties=species:S:1:pos:R:3:momenta:R:3:forces:R:3 energy=-27544.031119445677 free_energy=-27544.031119445677 stress="0.00017708360686741187 0.0013252964990971444 -0.0003742717440461962 0.0013252964990971444 -0.0018519702624828973 0.0016840606029556574 -0.0003742717440461962 0.0016840606029556574 -0.00013122797353256596" pbc="T T T"
C       11.47979945      -5.40763861     -25.59962186       0.56911429       0.15838354       0.30920406      -4.76177004       6.98498469       2.31826033
C      -54.25513992      43.07030630     -84.47511604      -0.92955178       0.87517996      -0.62453116       0.27085001      -1.55512495       6.25318273
C      -63.34865846      19.23544956     -29.52102910      -0.81706209      -0.09040548       2.64832502      -0.75202078      -0.17090280       0.85229727
N       12.07405454      -6.27181797     -25.88197410       2.41243919      -0.64598605       0.18239622       4.80048852      -6.99281090      -2.27561567
C      -18.64053820      22.66091457     -13.84106442      -1.36720366      -0.39092703      -1.92068284       0.21641327      -0.30903059      -0.72924555
N      -54.29883588      43.33540672     -85.54480489       0.14277262      -0.68505056      -0.74027127      -0.25781753       1.54810504      -6.24209401
C        5.81101577      26.46537051       4.41251982      -2.32361620       0.58290004      -0.32038919      -2.46949856       1.26168732       0.29078615
N      -18.23973482      22.19650014     -14.82934604      -0.58347791      -0.22662026       1.87581711      -0.27712439       0.29961141       0.67335804
C       20.98045569      -8.40466764     -31.77523420      -1.16727866       1.12477707      -1.94999661      -2.76054735       0.14088014       3.74909091
N       32.75240990      -1.15479291      31.45267907      -0.53951227       0.41245223      -0.87450124       4.22566063      -1.81806638      -0.34340482
N       20.36802710      -8.44046505     -30.67527844      -1.20377459      -0.67677828       3.00285421       4.58989395       1.54903997      -8.43826857
N       75.86695511     -31.91678204      71.39295801       0.46046624      -1.01680137       0.26660174      -1.08566877       0.99054730       3.72194880
O       44.83862828     -46.07931364      19.09781141       1.34516806       1.20586479       0.38461084       0.58720697       1.06476265      -1.16157741
O      -63.61084010      18.51510287     -28.71378740      -0.68835940      -0.16328502      -0.09510954      -1.10392653      -1.49318849       3.83117308
O       32.36788216      -1.24535213      30.30379923      -0.71303538      -0.65436843       2.14693905      -1.82589110       0.80852647       0.15140067
O       28.11794336      -7.88249402      48.03237519       3.93886424      -2.92456106      -1.60595458      -0.43796765       0.86437519       4.78279077
O       75.55828126     -31.62339696      72.50448852       0.34686054       1.94684286      -1.99088488       1.13332294      -1.24089624      -3.79553812
O      -19.70393247       3.33274517      29.10692821       2.08639822       0.57590020       0.83703139       1.02970626       1.64940388       2.94505084
H       82.99087814     -22.14137312      34.63256119      -0.90549924       0.57881952      -0.50035491       0.25555599      -0.23261264      -1.70399440
H      -33.21455947      45.89151042      57.38984722      -0.63696141      -0.09021274      -0.53142681      -0.92126736      -1.79517872      -1.63925542
H       28.44541360      -7.47848438      48.94054642       0.02571900       0.48035177       0.07949996       0.19682160      -0.60649519      -3.07965639
H      -19.85347687       2.82237794      29.93935206       0.13051587      -0.07992426      -0.49079331      -0.06580660       0.12652477      -1.28923237
H       43.99676624     -46.53361753      -8.77547615       0.30595858       0.00850359      -0.05151706      -0.06422786       0.13724454      -0.34270169
H       44.94839170     -45.50986903      18.28492336       0.11105576      -0.30505503      -0.03686619      -0.52238562      -1.21138646       1.47124482
