24
Properties=species:S:1:pos:R:3:forces:R:3 energy=-27551.235562201753 free_energy=-27551.235562201753 stress="-1.0002576052573651e-11 2.2224660393465362e-09 -6.702115369649574e-09 2.2224660393465362e-09 1.1228166756364036e-08 -1.9757466585174644e-09 -6.702115369649574e-09 -1.9757466585174644e-09 1.2658915898237594e-09" pbc="F F F"
C        0.75227341       1.16446275       0.53406212       0.00241279      -0.00234580      -0.00139021
C        1.42331441      -0.06061969      -0.01606771       0.00075906      -0.00362487      -0.00157430
C       -0.64880674       1.23941125       0.06934828      -0.00176273      -0.00151542       0.00172367
N        1.40048173       1.91664918       1.32680347       0.00364783       0.00149893      -0.00312176
C        0.69271786      -1.33311288       0.06555607      -0.00239287      -0.00144951       0.00213494
N        2.63304050      -0.00595805      -0.52556927      -0.00197820      -0.00261915       0.00154956
C       -0.70252545      -1.24825716       0.06668652      -0.00175411       0.00207943       0.00373465
N        1.39676484      -2.44808806       0.14372393       0.00157542      -0.00085612      -0.00139271
C       -1.36784698       0.05922608      -0.18128109      -0.00143515       0.00078493       0.00280920
N       -1.47602010      -2.44477705       0.22517046      -0.00155153      -0.00003795      -0.00684534
N       -2.61593132       0.06494862      -0.60648047      -0.00296932      -0.00094439       0.00420379
N       -1.27835463       2.50719563      -0.01680861       0.00248099       0.00292231      -0.00498579
O        3.34587807      -0.93399755      -0.94409948      -0.00245478       0.00320953       0.00325056
O        3.19030753       1.23607367      -0.62817958      -0.00572639      -0.00006417      -0.00060697
O       -2.69640333      -2.41940696       0.08772080       0.00249438       0.00219237      -0.00015297
O       -0.89831190      -3.49213647       0.50951883      -0.00317767       0.00629547      -0.00075068
O       -2.39302799       2.61414224      -0.54327297       0.00241162       0.00205898      -0.00112103
O       -0.69301370       3.49043048       0.41968896      -0.00267831      -0.00095409       0.00132824
H        0.82248038       2.70360428       1.60017327       0.00470196      -0.00111838       0.00360805
H        4.03242234       1.03969761      -1.06822491      -0.00142080      -0.00365730       0.00152429
H        0.89131823      -3.31671480       0.22543365       0.00792765      -0.00210943       0.00284086
H        2.38625314      -2.38788996      -0.03913724       0.00316967       0.00600443      -0.00277359
H       -3.03616371       0.97261983      -0.74650306      -0.00164777      -0.00456902      -0.00060089
H       -3.11671719      -0.80659758      -0.61908582      -0.00063175      -0.00118077      -0.00339159
