1296
Lattice="-21.379497716679122 11.574149489535584 5.957687070320505 0.0 23.172248736494247 13.710479373882245 0.0 0.0 -26.950512693047642" Properties=species:S:1:pos:R:3:momenta:R:3:forces:R:3 energy=-1487864.326237897 free_energy=-1487864.326237897 stress="0.002932145715596422 -0.000391763194875027 0.0008591241889274325 -0.000391763194875027 0.010178409196307102 0.00024825639246440763 0.0008591241889274325 0.00024825639246440763 0.007442773307055257" pbc="T T T"
C      -19.38883420      15.50973590      -0.55249872       0.06689804       0.42672092      -0.52592472      -0.58868154       0.14665065      -0.45581593
C      -19.43097160      14.32136299      -1.33553626      -0.24201479      -0.51508677      -0.32073306       0.27926084       0.75740666       0.05542318
C      -19.52041222      15.40715215       0.86779559       1.18098661      -0.33050216       0.00119631       0.34887308       2.66047373      -1.42447790
N      -19.30149236      16.68239725      -1.15499853      -0.41674205      -1.27740586       0.28752067       0.85362250      -0.07791016      -1.96294399
C      -19.53838840      36.24184928      13.05839459      -0.05273714       0.29182279      -0.08166768      -0.17295684      -1.30635686      -0.92831820
N      -19.51898040      14.39152041      -2.81974420      -0.30693462      -0.53679877       0.07908027      -0.96246124      -2.41742488       0.97103288
C      -19.71193472      36.12268528      14.45729954       0.48940057       0.25720323       0.39072428       0.30549920       2.11437129       1.58039359
N      -19.48650019      35.09907872      12.40335247      -0.63066038       0.10221869      -0.30623059       0.15318075       0.39650674       0.30111598
C      -19.69198847      14.19206351       1.52632431       0.08783244       0.40291633      -0.23563206       0.24932945      -1.50452929       1.43899379
N      -19.69434564      34.85347081      15.17955499       2.09172084      -0.39375936      -0.64154187      -0.41541476       0.48995803       0.36182223
N      -19.74279877      14.16765826       2.85741711       0.37677979       0.41044463       0.76389618      -0.66421835      -0.35311186      -0.33329787
N      -19.53849780      16.70320725       1.61504378      -0.71303691       0.54118866      -1.12842832      -2.18863464      -0.04832105       0.08373706
O      -20.16165706      13.39906563      -3.28594210      -0.61012924       0.58801848       0.82859356       1.36162461       2.40649908      -0.32220992
O      -19.00351208      15.26305185      -3.50904803      -0.52636969      -0.63474139       0.52792977      -0.54534932      -0.60993233       0.94539156
O      -20.26953426      34.76025980     -10.67085666       0.04872293       0.11087899      -0.49304041       0.40060000       0.54492249      -0.59687535
O      -19.10753409      33.89596179      14.71114979      -0.70766891      -0.20696102      -0.10916239       0.13898484      -0.22052324      -0.33417223
O      -19.20177596      16.66706292       2.78046572       0.26832286      -0.44964504       0.18917029       0.83211013       0.01319821       0.52151403
O      -20.10016313      17.74669211       1.17915541       0.80555232      -0.00549186       1.14688771       1.11669199      -1.51909583      -0.64292862
H      -19.44252248      17.56367599      -0.71235537      -0.04703088      -0.16208790       0.11188276      -0.05799534       0.15166003       0.56627799
H      -19.00399212      16.75188433      -2.15977387      -0.09619999       0.02089671      -0.23012657      -0.68057494      -0.27714771       1.43859911
H      -19.48306947      34.28929763      12.98009739       0.27394075       0.34064783      -0.24871684       0.16444023      -0.98072467      -0.32406322
H      -19.41766037      35.06853620      11.41699153      -0.24114644      -0.07159124       0.09331059      -0.20647624      -0.19409254      -0.56797639
H      -19.72463624      15.04126877       3.39765744       0.04450560      -0.03963272       0.10495481       0.19312354      -0.99220188      -0.39745267
H      -19.94583176      13.25765070     -23.68347664      -0.01950004       0.03629398       0.02509587       0.07022139       0.67539425       0.29411035
C      -16.05467640      12.98643189       1.04298410      -0.53119559      -0.76376564       0.70999820      -0.47397230      -0.25457036       0.34541506
C      -15.94569217      14.21452575       1.74900200       0.51311726      -0.70494363      -0.18505117      -0.55043409      -0.20621825      -1.18762362
C      -16.04626992      13.01831974      -0.41649619      -0.75618523       1.01513782      -0.23811093       0.61746037       0.98692364       1.53507209
N      -16.24497132      11.85917230       1.73304534       0.14430104      -0.93040873      -0.08196277       0.82707354       0.23138558      -2.17998763
C      -16.01608540      15.45533056       1.04211414      -0.88985550      -0.42656856      -0.23793838      -0.38707077       0.25715162       2.95823660
N      -16.11202295      14.21989743       3.15586343      -0.10579354       1.13187571      -0.64335948       1.23047126       0.89954123       1.51908288
C      -16.02078151      15.46537125      -0.32828650      -0.58104358      -0.07997573       0.64804109       0.20394710      -0.98040654      -1.55606025
N      -16.15457460      16.56270081       1.75366906       0.72583958      -0.69968676       0.20461817      -0.01809159       0.09130196      -2.78613849
C      -15.93451425      14.26385765      -1.09061307       0.68563747       0.04939061      -0.24879684      -0.65165287       0.93132357       0.71897312
N      -15.94236925      16.68360665      -1.00045186       0.84302719      -1.11621808      -0.50459476       1.21936372       1.70218465      -1.76945119
N      -15.88492789      14.37807992      -2.37604850       0.61739378      -0.89040718      -0.22766271       0.02023060      -2.14773708      -1.60895456
N      -15.88762120      11.84710858      -1.11578099       0.11428790      -0.52304791      -0.23700328      -0.18326428      -1.73632998      -1.01610248
O      -15.51962324      15.07221628       3.87024889       0.05416686      -0.53795204       0.08363940      -0.46274019      -0.28795783      -1.21530617
O      -16.77781703      13.36066564       3.68422417      -0.21004024      -0.31034493       0.86475524      -0.66225908      -0.68886074       0.36662417
O      -15.32995582      16.77698569      -2.10536011      -0.17978648       0.44041792       0.14259812      -1.30579804      -0.01069451       1.31658172
O      -16.40017721      17.69293301      -0.48274902      -0.87758695      -0.55670512       0.42688931      -0.23913426       0.16811718      -0.02859977
O      -15.99444058      11.79500099      -2.35623199      -0.78117949      -0.12945420      -0.03981151       0.10055228       0.21989278       0.70953862
O      -15.66716003      10.81625098      -0.47267721       0.92136974       0.22059745      -0.05157744       0.30983200      -0.40340055      -0.34728180
H      -15.98650247      10.99414765       1.28759391      -0.00224771       0.03156963       0.14380254      -0.35847115      -0.05986002      -0.02992240
H      -16.40173056      11.89179032       2.69823677       0.21833001      -0.22291614       0.00962040      -0.11867610      -0.01075852       1.36993783
H      -16.28472297      17.41662822       1.21966144      -0.16117698      -0.25611481       0.14442174      -0.01206405       0.27838167       0.70460484
H      -15.92558236      16.52692737       2.68697654      -0.25241820       0.10133426      -0.12334021       0.36878767       0.25858707       2.34546411
H      -15.77312304      13.51464377      -2.90211805       0.09908989       0.26785745      -0.19915145      -0.31112600       0.18062797      -0.09738444
H      -15.85731732      15.24885004      -2.84564894      -0.47125689      -0.15640007       0.02900867       0.24979054       0.68405035      -0.14661390
C      -12.21258573      10.02875919      -0.24848912      -1.03318799      -0.22767148      -0.33731510       0.05310530       0.14039531      -2.78896176
C      -12.12000488       8.84011272      -1.08401005       0.74939878      -0.93706122       0.30744236       0.23090645       0.43003520       1.02668083
C      -12.38684242       9.90841209       1.12317853      -0.71344583      -0.99261862       0.07432642      -0.09769139       1.68806589       1.31794857
N      -12.23060095      11.20659626      -0.83670108       0.16590838      -0.25680631       0.39294025       0.43139259      -0.65397524      -1.07956816
C      -12.17171900      30.76262793      13.32233185       0.90416203       0.61766059       0.34670148       0.43896924      -1.61135902      -2.48359876
N      -12.10918262       8.93935142      -2.54525504      -0.27637552      -0.14116901      -0.11665099      -0.90574369       0.36844078       1.72855575
C      -12.11825529      30.66414843      14.72721743       0.33496922      -0.45731198       0.15377609      -0.20917705      -0.26627842      -0.45305776
N      -12.21012707      29.64413367      12.57776861      -0.61978065      -0.84225101       0.23454296      -0.12010656       0.03194700       1.98433822
C      -12.36380125       8.65267461       1.76651003      -0.94760962       0.56528621       0.66786541      -1.11680115       0.33666562       3.15477079
N      -12.11527292      29.31377739      15.32322200      -0.53935990       0.36505104      -0.51609690      -0.25682976       1.25823139       0.30813454
N      -12.58867695       8.55781195       3.10129650       0.49256898      -0.06235685       0.35294275       0.53537081      -1.67784216      -1.70385744
N      -12.66618608      11.14027406       1.91146792       0.84985560       1.06020112      -0.22590484      -0.59538519       0.69573786      -0.02193600
O      -12.48533785       7.99390997      -3.22099026       0.08743362       0.75289937       0.54461993       0.00799821      -1.20398094      -0.41381491
O      -11.84934499      10.00439893      -3.07707131       0.50872922       1.15628407      -0.37263875       0.81344322       0.68043628      -0.05512129
O      -12.87432863      29.14076638     -10.65711088       0.16224075       0.66320510       0.39427308       0.59469784      -0.40804766      -0.58903519
O      -11.38332862      28.46594021      14.85313148      -0.52733511      -0.32318208       0.90222179      -0.59163045      -0.06642239       0.23027560
O      -13.13161108      11.03367209       3.03702733       0.82362840      -0.42020164      -1.40802761       0.33795365      -0.53287048      -0.10962625
O      -12.51718547      12.29953516       1.44754486      -0.60718782       0.32733882       1.30275898       0.23605869      -1.67242478      -0.05567483
H      -12.52502492      11.98028485      -0.29641361       0.26930036       0.04206230       0.19567097       0.13703417       0.94619884       0.14864115
H      -12.01097508      11.28674589      -1.84387786      -0.19093067       0.24181690      -0.08385537      -0.66858489      -0.12530242       0.95097249
H      -12.36518540      28.73678125      12.97976344      -0.19303758      -0.29731023       0.40484260       0.48542263       0.11909642       0.21906580
H      -12.30572193      29.65673213      11.60587103      -0.22384636       0.09301063      -0.04330223      -0.10920604       0.48741573      -1.37017434
H      -12.85952541       9.28680800       3.73005449       0.09875577      -0.07325346       0.31841754       0.09719835       0.56840560      -0.30810807
H      -12.69073647       7.59346619     -23.56149085       0.33637003       0.07862057       0.02880117       0.04716012       0.42781664       0.43164812
C       -8.83538772       7.78250137       0.96271024       0.36846760       0.07480006      -0.04013796      -1.20689767      -1.26235241       2.38179375
C       -9.04649215       8.95812141       1.80383018      -0.00554111      -0.17662405      -0.07920180       0.43630318       0.57022061      -0.53170360
C       -8.84240501       7.86374458      -0.46725481       0.17943322      -0.98280886       0.00795434       0.64420639       0.37043333       1.54801923
N       -8.83529932       6.60047413       1.62097064      -0.43050306       0.32080939       0.83241275       0.55243108       1.01292849      -6.44060704
C       -9.01680835      10.24415602       1.19342412       0.25777340      -0.33662188      -0.45222681       0.28923962       0.76701943      -0.45642356
N       -9.18204480       8.93482020       3.25377693      -0.49519427      -0.17108276      -0.50725737       0.34900367      -2.38675126      -1.21884668
C       -8.91294041      10.33895824      -0.24735239      -0.39729139       0.63803456       0.29375281      -0.30174367      -0.16421739       0.26257539
N       -9.04289414      11.38447064       1.85887634       1.11346513       0.38091122       0.22687826       0.14166609      -2.50080929      -0.78208052
C       -8.80166737       9.16641423      -1.08079783      -0.52689433       0.64013301      -0.68544627      -0.28138084       0.85357776      -1.65961739
N       -9.03919453      11.66827857      -0.84630573      -0.26655174       0.10291798      -0.29732220      -0.85690313       0.46909529       0.84915054
N       -8.71557041       9.28164542      -2.42378940       0.42312417       0.80821200       0.12213995       0.42262463       0.54734052       2.22454616
N       -8.70516599       6.66236018      -1.21753066       0.35776390      -0.21097941      -0.73470618       0.25029068      -0.89195961      -1.13215189
O       -9.09772510       9.94742651       3.90283073      -0.37832114      -0.29022498      -0.14135757       0.04777358       1.33681501       0.77396577
O       -9.36179454       7.84192519       3.81142484       0.44940643       1.44279281      -0.95532726       0.03869988       0.17274418      -0.19778378
O       -8.62452255      11.82566628      -1.97577639       1.16645128      -0.45527926      -1.50941142       0.50714155       0.01345903      -1.10268087
O       -9.59114694      12.62168732      -0.24828346      -0.22497505      -0.95679374      -0.96525403       0.69770705      -1.38177143      -0.70058027
O       -9.07880262       6.68842226      -2.40783515       0.39928937      -0.49222738      -0.70145685       0.28799811      -0.15996882       1.11923503
O       -8.21497031       5.60793717      -0.72711258       0.70311667       0.34909469       0.18512718      -0.90795093       1.58613033      -0.31699034
H       -8.79772049       5.77174433       1.02354399       0.07538501       0.13976883       0.14079470       0.22683443       0.22104119       0.91392928
H       -8.82865457       6.59568441       2.55608067       0.14052373      -0.17959646       0.02641561      -0.34627223      -0.20261729       4.04785892
H       -9.14026243      12.20104352       1.37167228      -0.00108260      -0.03275327      -0.42696710      -0.19786361       2.43586024      -1.50386800
H       -9.07908906      11.43625007       2.81343892      -0.28250895       0.22600591      -0.28314350       0.09091814      -0.35882299       2.57753913
H       -8.67865257       8.41153390      -2.91714919       0.12654548      -0.20701861       0.08766049      -0.00749616       0.01155409      -0.70914260
H       -8.49585758      10.21150342      -2.80060205       0.10996214      -0.01333173      -0.15176639      -0.45053228      -0.93252814       0.03431867
C       -5.16294469       4.80806832       0.33404669       0.35571529      -0.47634859      -0.62311748       0.95674075       3.09208952      -0.68926165
C       -5.05611943       3.57081991      -0.30458576      -0.55418347      -1.54861861      -0.32866867      -1.21889684      -2.37865959      -0.14679836
C       -5.37446726       4.99227281       1.74444429       0.64354547       0.58574577      -0.18997436      -0.01269618      -0.99376537       0.36804649
N       -4.94466199       5.90418140      -0.37242873      -0.19410283      -0.32028168       0.43947234      -0.32161492       0.13171194       2.18887355
C       -5.44942949      25.57853388      14.18728042      -0.42191996      -0.35382357       0.20062242       1.47929999       0.70544277      -0.51956023
N       -4.80656452       3.42254453      -1.70597930       0.53804682      -0.41843152      -0.36149791       0.41183401       2.25847841      -0.26034237
C       -5.32215940      25.73948325      15.58292209      -0.07079266      -0.58046703       0.89669671      -0.31792393      -2.50330373       0.24313913
N       -5.68950827      24.41374757      13.64759325      -0.60736262       0.84609398       0.55496286      -0.17107717       0.60179300      -0.68461832
C       -5.34963980       3.79278298       2.54083500       0.20378683      -0.44616264      -0.56219173      -0.46511717       0.39980195       0.43671168
N       -5.27709595      24.49833936      16.34000616      -0.21552791       0.68890106       0.27106163       0.08322235      -1.11336693       2.36225562
N       -5.49248301       3.83164733       3.84249543       0.08645413       0.26517056       0.15795880       0.26846397      -0.71064039       0.06886670
N       -5.42117600       6.25560972       2.36777095       0.19272093       0.20141709       0.99540300       0.76373936       2.61165763       0.04801175
O       -4.80138838       2.35347376      -2.28517948      -0.17961282       0.67272664      -0.38763558      -0.43574833      -1.71273853       0.39734364
O       -4.50343248       4.43137168      -2.38223245      -0.18298743      -1.35084432       0.01655528      -0.25388739       0.03251759       0.69556757
O       -4.79393946      24.47618473      -9.45030083       0.89679020      -0.62117904       0.31396248      -0.49585645       0.84123928      -1.52923787
O       -5.70624169      23.41522937      15.89862242      -0.26580272      -0.22812668       0.12801940       0.02803364       1.20387724      -0.02528064
O       -5.40324661       6.39236638       3.60305132      -0.22686804       0.21032900       0.64765344      -0.39413631      -1.06710269      -0.26641972
O       -5.39339785       7.34926766       1.71562116      -0.36320347      -0.09414802       0.09878860      -0.32327928      -2.04573689      -0.18739225
H       -5.02046362       6.79936854       0.13086710      -0.06886451       0.21439521      -0.13211512       0.00255817      -0.47503586      -0.59043120
H       -4.79331613       5.78393070      -1.33649616      -0.25972615       0.00067558      -0.13399853       0.16700848       0.22141491      -1.26540939
H       -5.94727046      23.64621541      14.24551577       0.06644134      -0.01093773      -0.29902494       0.13607573      -0.26743167      -0.30906660
H       -5.65667985      24.37616292      12.64883969       0.07033988      -0.04567207      -0.00995168      -0.09963353      -0.36706906      -0.28622769
H       -5.52204748       4.72588199       4.21891788       0.31215116       0.39055625       0.17681009       0.01361901       1.77771073       0.95583857
H       -5.31282670       3.08717034     -22.46247914      -0.33543612      -0.01352553      -0.01685618      -0.04734116      -0.57400582      -0.35205856
C       -2.06427380       6.50502333       2.79484706      -0.75022583      -0.24973626       0.22975178       0.32752520      -0.21206679       1.48614317
C       -1.99850922       7.76722806       3.54192919      -1.21023407       0.45158103       0.48831273       0.42542128      -1.02785537      -0.61307655
C       -1.89712229       6.47914684       1.38499995      -0.71337832      -0.02108209      -0.99612035      -0.40603408       1.56832936       0.61068761
N       -2.18142449       5.40476633       3.53264235       0.45898075      -0.70792638       1.36472051      -0.31441718      -0.46227040      -2.29331287
C       -1.80031698       8.98614734       2.86335855      -0.38735290      -0.32128044      -1.00270645       0.22589061       0.61532855      -0.78065656
N       -2.03571979       7.71580187       4.95764315      -1.18619666       0.47410717       0.64437921      -1.54221960       0.63887501       0.41675359
C       -1.79144918       8.93604656       1.40946172      -0.06184469       1.53800554       0.27482032      -0.11404418       0.60652611      -1.40441641
N       -1.56338420      10.15332442       3.46875952       0.31601357       0.06154838      -0.28724004      -1.02989096       0.06441298       1.67091818
C       -1.79561120       7.72614543       0.63646594       1.05062578      -0.69403107      -1.14048562       0.53180761      -1.77658355       2.26662384
N       -1.84121701      10.18464164       0.61610764      -0.04592039      -0.80493773       0.38376766      -0.91909303      -3.60335090      -1.27229616
N       -1.61688163       7.67356818      -0.64967092       0.38753385       0.11182219      -0.57375897       0.22409101      -1.82550744      -0.50904453
N       -1.67386904       5.23574053       0.76662527      -0.14023499      -0.59253852      -1.33966734       0.61992035      -0.78516831       0.34760992
O       -2.10191112       8.79456505       5.57246388      -0.55486565      -0.59815374      -1.62386285       0.45382911       0.03161135       0.15390013
O       -2.18054905       6.66075945       5.58860723      -0.24487051      -0.01607492       1.48718162       0.50537350       0.73267959       0.14828733
O       -1.93154332      10.12689780      -0.64034053       0.14489012       0.59093692      -0.30808258       0.42253644       0.42837981       1.13885415
O       -1.92846985      11.21775576       1.17692087      -0.89411023      -0.68953348       0.69382976       0.28198135       3.10018426       1.31176125
O       -0.85487883       5.13488272      -0.14436336       0.48107618       0.67469783      -0.76208246      -0.36055994       0.17370636      -0.34668155
O       -2.22944076       4.23107639       1.23987327       0.87291110       0.15290225      -0.21740078      -0.13888840       0.16666505      -0.41146780
H       -2.29852825       4.52967220       3.05596115       0.17447787      -0.00898668      -0.04822010       0.19730217       0.04771159      -0.05777812
H       -2.13195908       5.41198685       4.52280571      -0.06527799      -0.12408385       0.23089535      -0.00257200       0.14529083       0.62798313
H       -1.69169430      10.98589387       2.92787704      -0.13077908      -0.18495523       0.17919451       0.26240942       0.17994747      -0.26799255
H       -1.80270234      10.27632799       4.47495297       0.07458281       0.12779682      -0.00330817       0.52571665      -0.74209462      -1.34800493
H       -1.56606512       6.85715490      -1.25340475       0.12169372       0.22429350       0.19014001      -0.17363206       0.04750589       0.99321046
H       -1.67287860       8.52134592      -1.09520513      -0.06275195      -0.12574724       0.02114755      -0.07725320       2.12389323      -1.59752500
C      -19.45011186      23.08850728       4.19269069       0.15396611       0.36750202      -0.35898569      -0.41829335       1.93974925      -1.46179393
C      -19.47973244      21.88104251       3.43270671       0.53056267      -0.09971977       0.69164882      -0.40250979       0.36678826       1.77857425
C      -19.57316723      23.02286704       5.60207825       0.34386117      -0.44349897      -0.21757416      -0.29957567       0.07193647      -0.56895474
N      -19.37662882      24.25241827       3.47133292       0.80562713       0.58169743      -0.78611773       0.50026864      -2.63203904      -0.49580039
C      -19.64964179      20.62822670       4.07400607       0.73872788       0.14410144       0.29004338       0.30399873      -2.84233685      -0.21497246
N      -19.44380445      21.97299869       2.05374395      -0.54368521       0.14867255       0.25183667      -0.54165730      -3.96398642      -0.97187097
C      -19.51067090      20.51658155       5.50034454      -1.26377663      -0.88232850      -0.20859178      -1.38479731       2.15803389       1.00094723
N      -19.85331603      19.48946088       3.38521014       0.02643654      -0.47984711      -0.53393106       0.26066790       1.15697457       0.12083722
C      -19.73819774      21.73983835       6.28401140       1.02484558       0.27330584      -0.06534767       1.76647320       0.06740570      -0.54963241
N      -19.52659727      19.25131629       6.19391463       1.57672926      -0.50645432       0.03289244       0.84899596      -0.32950717      -0.93053627
N      -19.86583756      21.73468212       7.58328495      -0.56342294       0.04811431       0.11527500      -0.62924888       0.01125795       0.33418654
N      -19.67888444      24.28289489       6.29067968      -0.48519666      -0.24687341      -0.00936956      -0.53075450       0.07103755       1.68777978
O      -19.93831997      20.99177738       1.41112862       0.14087316       0.53900297       0.37566234       0.50677940       2.19716365      -0.01307508
O      -18.83694504      22.85706570       1.52008526       0.53855138       0.20624222      -0.52124496       0.42952226       0.86710472      -1.73984426
O      -19.94238541      19.09154571     -19.63766607      -0.32858918       0.18132011       0.05811839      -1.49615392       1.57220375       2.43938253
O      -19.01736685      18.28953216       5.66547568      -0.67098912       0.69639003      -0.49580750       0.94557802      -0.81765978      -2.16961693
O      -19.36497366      24.34833368       7.49408571      -0.84285743      -0.16646178      -0.23007136       0.11417884      -0.53018747      -0.61775447
O      -20.13918405      25.28548001       5.74753503      -0.19879584       0.32490289      -0.72898117       0.28331666      -0.27027939      -0.67501863
H      -19.54475631      25.15850315       3.79606768      -0.34911388      -0.04570150      -0.31193265      -0.31500457       1.02234359       1.19067102
H      -19.20412348      24.17574195       2.44470907      -0.05690015       0.21784108      -0.11167365      -0.11799887       0.39578725       1.63771627
H      -19.74093189      18.57736309       3.76908871       0.04777615       0.10708832      -0.01257473       0.13922257      -0.16988383       0.75859884
H      -19.90832371      19.51113556       2.38116996      -0.11954457      -0.17130900       0.00652837      -0.05379771       0.21661101      -0.00805544
H      -19.87226956      22.60166941       8.12460983       0.23330261      -0.00579869       0.11920630       0.20105232      -0.41077845      -0.42884503
H      -19.97762951      20.85938648     -18.87743486      -0.03105898      -0.17245427       0.02047396       0.09653249       0.00939759      -0.03339129
C      -15.97815444      20.63760697       5.72042563       0.31310750      -0.38081845       0.67009461      -1.69287057      -1.13541114       0.25796522
C      -16.13080359      21.87475380       6.37223596      -0.71325377      -0.74748502       0.40196354       0.85074276       0.66252929       0.98727723
C      -16.17209041      20.68622308       4.31056166       1.19893358      -0.41000181      -0.07188076       1.39708397       0.29401281      -1.38685563
N      -15.98249783      19.46957504       6.39933570      -0.53562673      -0.31464704       0.70466359       0.27605148       3.21295098      -0.82581386
C      -16.17465007      23.12277810       5.68540520      -0.41633736      -0.85220803       0.32537791      -0.39344157       1.16903456      -0.18375780
N      -16.23211688      21.89151295       7.81694348      -0.44157886       0.50108774       0.97606546      -2.60709524      -0.89127096       0.83695774
C      -16.03318630      23.15933911       4.23513967      -0.60529804      -0.51214067       0.11032760      -0.32294538      -1.55312496       0.76257837
N      -16.49236060      24.23875465       6.34057230       0.05077890      -0.95949440       0.71044232       0.71567308      -0.32019756       0.47272273
C      -16.03359348      21.88488708       3.53261858      -0.73099155       0.43547592      -0.69036011      -0.06869222       1.77085479       1.72276610
N      -16.06880787      24.37800786       3.52543270      -0.03053101       0.19347536       0.00854438      -0.37558611       0.19168380      -0.38718709
N      -15.89179143      21.91137476       2.25188595       0.21841126       0.90626135      -0.26370494      -0.28004444       1.87898656      -1.26040405
N      -16.02917818      19.50517779       3.55227481      -0.04223992      -1.02893155       1.14034489      -1.74911590      -1.00556964      -1.17177771
O      -15.91090119      22.84057840       8.51662227      -0.51772969       0.36444869       0.83592165       0.74263925       0.02501829      -0.69536644
O      -16.89077679      20.93222662       8.34858868       0.57303115       0.54292630      -0.61780355       1.62514533       0.90102174      -0.89248012
O      -15.95236393      24.46021592       2.28247503      -0.87081351      -0.91072436       0.38965036       0.29566313      -0.49244098       0.50426312
O      -16.26274098      25.39826249       4.16311088      -0.22176211      -0.28328937      -0.49272432       0.04467202       0.97969085       0.17725285
O      -16.50979600      19.41697910       2.38287334      -0.54523201      -0.77032152       0.28291185       1.03561390       0.25374668       1.67819063
O      -15.55350966      18.52653841       4.11009672       0.35339674      -1.30436526       0.42695896       0.39384039      -0.61354081      -0.43861266
H      -15.97728032      18.67774525       5.80529408      -0.25532891       0.04591923       0.14029492       0.16367852      -1.24494279       0.31881464
H      -16.28531972      19.59306220       7.35514913       0.40289381      -0.27748848      -0.18708123       0.02328509      -0.92783379       0.10904298
H      -16.37818184      25.10689933       5.85900884       0.25662266      -0.09280599      -0.02900811      -0.16892331       0.45793776      -0.58856957