24
Properties=species:S:1:pos:R:3:forces:R:3 energy=-27552.894228530604 free_energy=-27552.894228530604 stress="2.7437838497621556e-09 -5.290162379544022e-09 1.5237796225005416e-09 -5.290162379544022e-09 1.0929028545457443e-08 -2.6187250450871033e-10 1.5237796225005416e-09 -2.6187250450871033e-10 -6.90853960974013e-10" pbc="F F F"
C        0.87083219       1.13320234       0.07050561       0.00055807      -0.00161566       0.00342978
C        1.50107025      -0.14362106      -0.11451485       0.00153602      -0.00185201       0.00337145
C       -0.56475517       1.18839554       0.05629680       0.00063759       0.00219636       0.00392225
N        1.59057468       2.22886376       0.19712042      -0.00759225      -0.00038663      -0.00122716
C        0.74201876      -1.36101526      -0.13624248       0.00168574      -0.00123028       0.00347927
N        2.93077759      -0.21033833      -0.24254201      -0.00069262       0.00354944      -0.00488628
C       -0.68840414      -1.27623864      -0.02517756       0.00236932       0.00337775       0.00289927
N        1.34453620      -2.52807353      -0.24730634       0.00014201      -0.00129466       0.00154417
C       -1.36124094      -0.00516542      -0.01904490       0.00101145       0.00373843      -0.00801451
N       -1.45936579      -2.48529559       0.03522640       0.00111992       0.00183616      -0.00030846
N       -2.67578079       0.06343318      -0.03901942       0.00115789      -0.00215814       0.00068870
N       -1.21873591       2.46501400       0.13075568       0.00359891       0.00132119       0.00253591
O        3.45750847      -1.21960231      -0.70571070       0.00330534       0.00074782       0.00202012
O        3.62897959       0.74053488       0.10194825      -0.00316846      -0.00180113      -0.00094406
O       -2.68093585      -2.45269883      -0.10164131       0.00103240       0.00189920      -0.00271346
O       -0.89986667      -3.56181704       0.23629728      -0.00386054       0.00070715       0.00100727
O       -2.40987745       2.56741343      -0.15662107       0.00551746      -0.00360145      -0.00166393
O       -0.58977037       3.46197139       0.48008428       0.00136070       0.00101506       0.00060011
H        1.09815016       3.09466878       0.34914516      -0.00139820       0.00111386      -0.00107627
H        2.59260349       2.12843339       0.22479210       0.00230792      -0.00161958      -0.00091167
H        0.77882659      -3.35639586      -0.15558180      -0.00216788       0.00152205       0.00303352
H        2.33606641      -2.52965444      -0.42224200      -0.00013695      -0.00023190      -0.00665843
H       -3.09375637       0.97957033      -0.07872807      -0.00522862      -0.00785879       0.00021176
H       -3.18495739      -0.80507053      -0.08841756      -0.00309522       0.00062575      -0.00033932
