24
Properties=species:S:1:pos:R:3:forces:R:3 energy=-27552.893131888173 free_energy=-27552.893131888173 stress="2.229171282981786e-09 9.524053659096063e-09 8.546351244924909e-10 9.524053659096063e-09 -1.0721003562692248e-09 3.566745500116863e-10 8.546351244924909e-10 3.566745500116863e-10 5.270894600303018e-10" pbc="F F F"
C        0.86880438       1.13488839       0.06933391       0.00187189      -0.00168231       0.00124776
C        1.49808562      -0.14355268      -0.09441133       0.00041428      -0.00037049       0.00031872
C       -0.56808702       1.19300987       0.03831849       0.00008961      -0.00372521       0.00212096
N        1.59186395       2.22836771       0.19397286       0.00074260      -0.00477788      -0.00180951
C        0.74226898      -1.36036455      -0.12873116       0.00187809      -0.00002485      -0.00158155
N        2.93086645      -0.21149200      -0.19666831       0.00612925       0.00256336       0.00053579
C       -0.68834331      -1.27641682      -0.01867977       0.00097978       0.00227998      -0.00298936
N        1.34814099      -2.52527277      -0.24703341       0.00039391      -0.00236512      -0.00111822
C       -1.36241826      -0.00541443      -0.02154058      -0.00113938      -0.00022748      -0.00155338
N       -1.45674358      -2.48674251       0.04511013       0.00036629       0.00055768      -0.00146514
N       -2.67669353       0.05758142      -0.04404153       0.00222033       0.00124286       0.00278536
N       -1.22128256       2.46995162       0.08339966      -0.00167249       0.00158989      -0.00175688
O        3.46153563      -1.20047617      -0.69649100      -0.00502544      -0.00205048       0.00355530
O        3.62337203       0.71811447       0.20981039       0.00368903       0.00062395      -0.00451934
O       -2.67972755      -2.45765347      -0.08002868       0.00134622       0.00181703      -0.00383425
O       -0.89264786      -3.56243248       0.23813351      -0.00418260      -0.00178590       0.00291256
O       -2.42861636       2.55711204      -0.13475730       0.00096887       0.00498126      -0.00304050
O       -0.57790066       3.48752918       0.33623618      -0.00583642      -0.00666560       0.00349388
H        1.09816253       3.10052568       0.30116228      -0.00068978       0.00641184       0.00278255
H        2.59190009       2.12464030       0.25557642      -0.00572102      -0.00027090      -0.00185551
H        0.78436437      -3.35545751      -0.15997184       0.00169958       0.00173377       0.00204671
H        2.33824775      -2.52470014      -0.42870367      -0.00068693      -0.00108629       0.00060171
H       -3.09770329       0.97285617      -0.07527817      -0.00034113       0.00286366       0.00074277
H       -3.18260599      -0.81342364      -0.08597987       0.00250545      -0.00163276       0.00237959
