24
Properties=species:S:1:pos:R:3:forces:R:3 energy=-27552.893081450664 free_energy=-27552.893081450664 stress="-9.80651159570706e-09 1.226652950965969e-09 -2.6464782106444447e-09 1.226652950965969e-09 1.1549694175283657e-08 -8.31555134034069e-10 -2.6464782106444447e-09 -8.31555134034069e-10 3.4685105188153006e-10" pbc="F F F"
C        0.72428586       1.25289622       0.03093742       0.00224711       0.00407150      -0.00449636
C        1.42871152       0.00061259      -0.06208186       0.00016888      -0.00003546      -0.00053845
C       -0.71114656       1.23129975       0.02823473      -0.00021345       0.00241608      -0.00320035
N        1.37699786       2.39495644       0.08465257       0.00260109       0.00234658      -0.00285495
C        0.72470091      -1.25215621       0.02471311      -0.00011210       0.00028896      -0.00443547
N        2.85664327      -0.00015128      -0.19503282      -0.00259980      -0.00372100      -0.00423442
C       -0.71018844      -1.23014714       0.03712106      -0.00061536      -0.00170600      -0.00402521
N        1.37770428      -2.39492003       0.07133075       0.00221211      -0.00354944      -0.00216465
C       -1.44568385      -0.00005075      -0.04425662       0.00026255       0.00073575       0.00162109
N       -1.42849845      -2.47322344       0.09991534       0.00058037      -0.00105621       0.00372401
N       -2.76027639      -0.00084381      -0.12479193       0.00765628      -0.00177286       0.00027062
N       -1.43028350       2.47438210       0.07437415      -0.00334553      -0.00000822       0.00160733
O        3.46576031      -1.06042678      -0.33090089      -0.00158546       0.00018628       0.00332195
O        3.48336993       1.05848624      -0.19024401      -0.00244895      -0.00011382       0.00587546
O       -2.61224270      -2.51935238      -0.22698079      -0.00448038      -0.00415502       0.00251383
O       -0.86087695      -3.49268979       0.48627155       0.00112273       0.00619416      -0.00058461
O       -2.61401910       2.51488460      -0.25411390      -0.00442704       0.00535248       0.00135428
O       -0.86477593       3.50033298       0.44651106       0.00184104      -0.00434120       0.00046245
H        0.83872476       3.23628437       0.21552433       0.00084550      -0.00004336       0.00307857
H        2.38314419       2.35646543       0.03509791       0.00391238      -0.00644247       0.00190817
H        0.84174156      -3.23571641       0.21377827       0.00286361       0.00200365       0.00367902
H        2.38096134      -2.36045783      -0.01910394       0.00001363       0.00540433      -0.00056265
H       -3.22234801       0.89079548      -0.20642105      -0.00443339      -0.00504792      -0.00077536
H       -3.22248839      -0.89293053      -0.19904041      -0.00206583       0.00299323      -0.00154427
