24
Lattice="13.9116 0.0 0.0 0.0 13.9116 0.0 0.0 0.0 13.9116" Properties=species:S:1:pos:R:3:momenta:R:3:forces:R:3 energy=-27544.010699477134 free_energy=-27544.010699477134 stress="-0.0009188505300715425 -0.0012464537739059795 -0.0018491541449929278 -0.0012464537739059795 0.005361663940310567 0.0005919167192818456 -0.0018491541449929278 0.0005919167192818456 0.004355208608107494" pbc="T T T"
C        4.52424848       0.57655161      -1.75395579      -0.36307342      -1.39547121      -0.08064415       3.95797757       4.37372089       4.77035674
C        5.54038339       1.63980618      -1.36425758      -1.15402903      -1.84148429      -1.87099252      -0.58950990      -2.74054575      -4.49353691
C        3.96843249       0.01262492      -0.60049557      -0.96644172       2.71855056       1.69870371       0.80327933       1.38264366       1.27093252
N        3.89090333       0.52430112      -2.86936302       0.75382415       0.23584450      -1.25258936       4.55131838       6.07492449      -4.85627167
C        5.84182011       2.23934647      -0.09291014      -0.79794660       0.49734585       1.00917359      -1.79914808       1.55300866      -2.23801616
N        6.27732655       1.94884582      -2.73348051       2.66174791      -0.26389115      -0.21551646       0.12454262      -3.42573326      -0.66035501
C        5.23781929       1.58011703       1.09017010       0.19200447      -0.96600259       1.56724503       1.04571693       0.38372529      -4.36763350
N        6.25632617       3.46706962      -0.11262707      -1.27843765       0.65536410      -1.64061361       2.21765553       1.53905160      -1.71731898
C        4.22181159       0.62662223       0.71271950      -1.06216171      -0.00636240       1.39972351      -2.55998250      -0.81687399       3.22977380
N        5.89166981       2.12579105       2.20830075       1.58527430      -1.01064995      -0.74262079      -2.15231235       1.57364189      -1.30442117
N        3.28872586       0.41763328       1.78749238      -1.23347519      -0.98758292      -0.75925459       4.78570737       0.10127210      -1.45017709
N        2.97958932      -0.98024091      -0.84189820       1.56417493      -0.61453018      -0.16662102      -1.57723921      -1.51215084       4.10112137
O        6.56804530       0.74168811      -3.30916051       1.78369446       0.79890249       0.83045795      -0.48931632       4.92758316       1.39220429
O        6.51526968       3.02583745      -3.28500088      -1.88240249       1.10436616      -0.28362287      -0.34491872      -2.09919880       1.75207233
O        5.45979627       3.63288636       2.52500280       0.19044144       1.66533368      -0.95997035       0.03931404      -0.14821277       1.01668344
O        6.49282429       1.57882276       3.02642750      -3.18448046      -0.27068572      -0.12142190       0.66621436      -0.24022122       1.86096948
O        2.02595071      -1.00918455      -0.02004903       3.86641314      -0.55182287       1.26245181       0.75271053       0.28695832      -1.62258678
O        3.19040679      -1.90692299      -1.59919157      -1.06753906       1.03036193      -0.13016503      -0.02653215       0.69075340      -0.93074222
H        4.21101767       0.82486795      -3.86065946       0.18203311      -0.05288608      -0.16417756       0.31937370      -0.15278658       2.85609962
H        3.31476740      -0.12134532      -3.03896602      -0.07096695      -0.44602491       0.07012790      -6.07706339      -6.91038090      -0.88785101
H        5.66312461       4.45928840       1.96335227       0.15299583      -0.04341476      -0.28170189       0.42794196      -2.68401132      -0.31125506
H        6.57494246       3.85845665      -1.15606650       0.09573517       0.12621781       0.75064073      -1.29700295      -1.73498503       3.18394835
H        2.37533343       0.26084008       1.63059321      -0.50460459      -0.12458209      -0.51782038      -3.48477359      -1.20390951      -1.35250362
H        3.43319484       0.91949828       2.61870296       0.53721995      -0.25689595       0.59920824       0.70604683       0.78172652       0.75850721
