1296
Lattice="-38.48509802467315 14.778206290989125 54.018040022416734 0.0 20.118834828831442 1.1003679904991917 0.0 0.0 -24.98708927040162" Properties=species:S:1:pos:R:3:momenta:R:3:forces:R:3 energy=-1487794.5605419432 free_energy=-1487794.5605419432 stress="0.002308438003619437 -0.00023458192614386533 0.0014049126063643866 -0.00023458192614386533 0.002093891481006317 1.2217802084565915e-05 0.0014049126063643866 1.2217802084565915e-05 0.0019114919243393854" pbc="T T T"
C      -30.06225333      25.67996434      38.09959659       0.29708608       1.60540377      -0.44871565       4.49003217       1.17591052      -0.41088993
C      -31.17171167      24.94238960      38.49987409      -0.86777167       0.39835758       0.27700194       1.73022115      -1.13534521       1.47832112
C      -30.22921273      26.75371730      37.18653316       1.50779702      -0.50563307      -0.64299211       0.13385262       0.13682268       0.16401154
N      -28.73720185      25.51609349      38.55092247       1.27813459      -1.88744563      -0.61746691      -1.29306695      -0.99001712       0.14239644
C      -32.45553051      45.48306121      39.32468179      -0.59159836       0.29534840      -0.01670701      -1.68492983       0.16932188      -1.48119745
N      -30.91382988      23.61770658      39.07490675       0.09774385       0.01214148      -0.08260912      -0.04585783      -1.10038624      -0.08069124
C      -32.62490398      46.75446387      38.65791890      -0.34487211       0.41339027       0.20814242       0.17721515      -2.25798727       0.36389734
N      -33.48137220      44.66456555      39.55912214      -0.28532187      -1.40979134      -0.72279133      -2.78542188       0.89622676      -1.00419704
C      -31.49260751      27.32732458      37.05074783      -0.34076580      -1.06231760       1.13836161       0.42592070       1.03123377      -0.99231893
N      -33.92589280      47.11379640      38.17272607      -0.05868830       1.51931935      -0.78248261       0.01764550      -1.97976907       1.10818409
N      -31.67451563      28.48363114      36.37526684      -0.62220167       1.59167546      -0.11500551      -3.50437233      -2.50031089       1.76861453
N      -29.09346026      27.27726664      36.28010765      -1.12504854       1.35709850       0.82972013      -1.77553084      -3.40331843       0.60583168
O      -31.81242067      22.78444312      39.10081736       0.43687416      -0.39168173       0.79634823      -0.24791697       0.37290364       0.08957932
O      -29.79421006      23.28056891      39.43464579      -0.17567867       0.80674743       2.11340287       0.24413724       0.95770278       0.04086945
O      -34.10288786      48.27519061      12.97003739      -0.91034341       0.34886999      -1.18615529      -1.17635978       1.74093025      -0.36319049
O      -34.81368533      46.25872912      38.02927550       0.79040575      -0.33751134       0.11681289       0.48160230       0.76885800      -0.10313816
O      -28.57382281      26.37659285      35.61518360       1.32880101      -0.59988826      -0.20292128       0.27332242       0.78126901       0.59351627
O      -28.88780687      28.43557322      36.14764992      -0.08815601       1.36887399       1.16232817       0.34825045       1.63952088       0.02028035
H      -27.92975781      25.91638555      38.09676847      -0.30705577      -0.12695750      -0.12717513      -0.72823133       0.27324075      -0.28987121
H      -28.47714759      24.80326654      39.24069797       0.21933337      -0.24658485       0.13379889      -0.92869404       0.45214103      -0.81358165
H      -34.36118615      44.78316758      38.97094147       0.22682648      -0.00374421       0.03230468       1.77426694       0.07047609       1.28213338
H      -33.43847486      43.88188414      40.18011227       0.32196251      -0.25525655      -0.35516157       0.59597617      -0.15066684      -0.26720082
H      -30.95697066      29.02056414      36.11416845      -0.24025507       0.22693284      -0.82610007       3.18557263       2.17778845      -0.83241439
H      -32.55708784      28.88214942      11.70750019      -0.19220290      -0.09068117      -0.38361166       0.54183932       0.44676241      -0.92021126
C      -38.28028518      22.83896067      28.03974208       0.23242236      -0.74129980      -0.28261677       1.00973687       0.70549791       1.06175495
C      -37.41603985      21.84538677      28.44278822      -1.59367567       0.23822741       1.03266006       0.72955789      -1.13239342       1.54798778
C      -38.00114029      24.11355679      28.45413156      -0.28006513      -0.63616142       0.66733142      -1.69055180       2.40956334      -0.71050848
N      -39.26143215      22.62181108      27.26062331      -0.58090849      -1.89717028      -1.08872731      -3.00817513      -0.36250976      -2.42290649
C      -36.45090857      22.04360301      29.47684914      -0.74642441      -0.27532913      -0.29356413       0.94828528       0.26924043      -1.77711030
N      -37.54729991      20.62719491      27.74299521       0.08303176       0.09252337      -0.00835245      -1.31313215       0.61972581      -0.17027701
C      -36.30270396      23.33596980      29.98211530      -0.69128326       2.30591521      -0.35475188      -1.33091750       0.93023313      -0.73670007
N      -35.53780130      21.11403885      29.72870318      -1.66418575       0.56672114      -0.09198593       0.30432028      -0.78743402       0.58307857
C      -37.17004332      24.41222561      29.52360656       0.86555410       0.79133092       0.22387787       1.31339649      -2.99183684      -1.29611048
N      -35.43677733      23.56460282      31.06489650      -0.02835764       0.77581077      -0.42300991      -1.40635466       1.76723085       1.25841438
N      -37.09175614      25.52113096      30.12341701      -0.82386674       0.14312388       0.45618634       2.30943690       1.11791735       4.59308694
N      -38.71587128      25.23729395      27.77386500       0.00799337       1.30316808       0.44899567      -1.98967915      -3.10670165      -0.59020029
O      -38.68510580      20.31552015      27.38767889      -0.25557253      -2.67969519      -1.61516180       0.50669207      -1.62632723       0.09988689
O      -36.56500846      20.02268033      27.40520160       0.05056411      -1.54812815      -0.19138531       1.48536161      -1.23118376       0.01267481
O      -35.00318719      24.74405441      31.26719136       0.15280134      -1.20180618      -0.41777314       0.54754982      -2.41815150      -0.12640680
O      -35.38828123      22.66326143      31.87489552       0.02399706       0.62910067      -0.04311906       1.55117151      -0.12597941       0.49599096
O      -38.14698834      26.25096359      27.77161683       0.33806208      -1.61743549      -0.60734162       1.91956941       3.65549907       0.30770840
O      -39.81282628      25.10722931      27.14457914      -0.46237696       0.14726364       0.50284239       1.31270772      -0.29354597       1.13124153
H      -39.86442857      23.35399184      26.93771484      -0.06997352      -0.02092598      -0.45655339       0.13454117       0.58111934       0.23530050
H      -39.61450802      21.69524316      27.22301255      -0.12194678       0.04471638       0.13558883      -0.00383261      -0.65031298      -0.44650810
H      -34.77360257      21.23877802      30.39433790       0.32442396      -0.12271389       0.10292582      -0.66945654      -0.06491819      -0.55576151
H      -35.52605597      20.32427281      29.11965691      -0.01178819      -0.61992922      -0.24100044       0.25376889      -0.32004234      -0.00509123
H      -37.40307809      26.40091084      29.92225894       0.27788586      -0.15643633       0.09061537      -1.47624446       2.06107033      -1.34527284
H      -36.45444566      25.46566716      30.97177121      -0.07837064      -0.03461139      -0.26491421      -1.07267748       0.80781411      -1.69710456
C      -36.55651966      10.67752710      18.61794407      -0.39988889       0.73303016      -0.44605308      -0.24252162      -0.50926099      -3.63639835
C      -35.48359203       9.74649260      18.35466307      -1.06320718      -0.52633983      -0.79580764       0.21101365       0.35562086       1.40853592
C      -37.21725253      11.18885327      17.38869479      -0.27689706       0.27090984       0.23151256      -0.22748432      -0.04221589       0.05471851
N      -37.00694011      10.93332747      19.81072147      -0.33520465      -0.24070788      -1.72996868      -0.51337042       1.26997522       1.70688216
C      -34.82085997      29.68175087      18.17796519      -0.75379802      -0.26512198      -0.14856616      -2.66504931       2.97232594       0.65436327
N      -35.02016315       8.91599996      19.48099598      -1.16283529       0.72736282      -1.31637298      -0.79193962      -0.27228285      -2.66144032
C      -35.39695890      30.44793725      17.13176186       0.72057931       0.83884660      -0.95100962       0.35718283      -2.03434196      -1.48544018
N      -33.74550228      28.99604711      18.01297132       0.20479590      -0.63629906       0.43550635       3.03323671      -1.35394148      -0.28244690
C      -36.64480707      10.92625837      16.09142336      -0.58354307      -0.54543142      -1.02656352      -1.41771787       0.22044832       1.03707277
N      -34.86328951      30.05588316      15.76590757       0.40954170       1.43486097       0.30100349      -1.82446940       1.09721754       1.84988416
N      -37.28792725      11.19227145      14.95260411       0.36917178      -0.10559646       0.01274859       1.42754962      -0.84274401      -0.60501496
N      -38.55105887      11.85302771      17.42769914      -1.54677936       0.00208236       0.26608088       3.25694451       0.35586182       0.56304316
O      -34.48403900       7.90122435      19.09732279       0.51702667      -1.67985325       0.51981177       1.36241150      -1.46241477       0.31617779
O      -35.24477611       9.09836924      20.64214590      -0.54254865       0.00921810       0.34110903      -0.50358888       1.42408958       1.73400594
O      -35.56815191      29.69180342     -10.14070465      -0.13737732      -0.97822110       0.12030770      -0.88155890      -0.29368150      -0.21920940
O      -33.69165113      30.14708752      15.69437623       0.59286948      -0.60175800      -0.50864790       3.28663317      -0.10144232      -0.72029480
O      -39.00922529      12.13178485      18.49256606       1.81220598      -0.40048919       0.11013079      -0.45414907      -0.28825954       3.13476827
O      -39.09683713      12.28386074      16.44866067      -0.29970026       1.44314833      -0.87998621      -0.54149441      -0.10391556      -2.88601827
H      -37.68235167      11.72346258      19.89998828      -0.37712623      -0.15019658      -0.17491966       0.62953956      -1.29119761      -0.05070396
H      -36.49147658      10.55738582      20.61549181       0.11028309       0.07635186       0.16374260      -0.54550316       0.34004321      -0.64697435
H      -33.17253862      29.03725054      17.13064936       0.16068721      -0.11639119      -0.05955633      -1.04155275       0.10655949       1.50612807
H      -33.38690213      28.62204033      18.89459799      -0.13807499       0.04732330       0.07606029       0.07783003      -0.43660371      -0.95468100
H      -37.98665879      11.86231892      14.90614455      -0.05539284      -0.21872088      -0.21944171      -1.38320061       0.91168936       0.14187006
H      -36.90205074      10.81102756     -10.89129497       0.17526729       0.04090897      -0.02550771      -0.19620161       0.15750815       0.35240945
C      -21.88476058       2.36962574      35.75598044      -0.10492881      -1.26959096       0.15694637       0.39257016       0.27776304       0.63092817
C      -23.11552853       3.07251299      35.30978947      -0.35318932       0.84520794       0.08248566       2.64990415       0.36611296      -1.44581128
C      -22.06213552       1.56539988      36.95342776      -1.60020799      -0.59261331       0.41775886      -0.46576966       0.56462857      -0.59820561
N      -20.63864473       2.48222201      35.18203914       1.07482921       0.88160315      -0.11940431      -1.91714421      -0.43069962       1.24558201
C      -24.41074928       2.61005057      35.63325303      -0.70058627       0.42548257       0.46946142       2.15886125      -0.54753692       0.57554044
N      -22.93963796       4.11931758      34.21858400       1.07174149      -1.26974786       0.02006252      -2.31838855      -1.87893888       1.38093560
C      -24.47001934       1.65348742      36.63824708       1.09968769      -0.58492999       0.53635313      -1.17834682      -1.57919984       1.64842142
N      -25.48837858       2.94448941      35.04279875      -0.72167659       1.29149378       1.02583704      -3.38730501       2.29051737      -2.99167616
C      -23.37515329       1.24727769      37.40618038       0.10097618       0.19866372      -0.14300008      -0.71154354      -1.63100318       0.20201370
N      -25.83531338       1.07426575      36.96924166       0.15252795       0.52019402       1.14770179       1.26057862      -0.85961287       1.28455171
N      -23.50853418       0.34677169      38.44942248      -0.65764418       0.04880471       0.13892396      -2.40752950       1.49108874      -1.20718989
N      -20.97059521       1.00837351      37.66743942      -0.23296238       0.51154471      -0.97306335       2.39448228      -1.50298524      -0.33689864
O      -23.89085240       4.40973809      33.49545893      -0.02952835      -1.04397973       0.44783476       0.43771075      -0.17958597       0.42945918
O      -21.87995907       4.66975656      34.17550541       0.79296300       0.33870600      -0.86705697       1.73902757       0.84094245      -0.39229109
O      -25.95030131      -0.07858550      37.36712577      -0.81343536       0.29245402       0.02722059       1.13365591      -0.17740125      -0.54623414
O      -26.81546124       1.77244416      36.94027239      -0.19429033       1.84073179       1.09059190      -0.88981379       1.62246013      -0.50624053
O      -21.07579949       0.67649588      38.86594077       0.04044037      -0.19368958       0.77204029       0.52109094       1.02381140      -1.32978379
O      -19.89140915       0.75713570      37.05008157      -0.27604201      -0.69419222       0.08532012      -1.95163397       0.88486523       0.98593291
H      -19.85739033       1.84781900      35.49927074       0.46416746       0.37179470       0.05984329      -1.44201010       1.31302349      -0.46197538
H      -20.61306878       3.23495268      34.51891241      -0.16916328       0.25252324      -0.05810734       0.78816242      -0.23431809      -0.22524334
H      -26.36028703       2.47480041      35.20926284       0.14635364       0.01408659      -0.16761532       0.19063179       0.07777160       0.29275863
H      -25.55731058       3.64867799      34.29768598      -0.21385462       0.07159311       0.09382987       0.77662508      -0.81513267       0.59011990
H      -22.82340912       0.56331307      39.07917546       0.20101657       0.07882529      -0.10260944       2.23177481      -0.14603634       1.95517584
H      -24.37564347       0.31040731      38.97853420      -0.13315758       0.47795858       0.60175911      -0.21058235      -0.04702679      -1.06335758
C      -19.89783010      -3.19823355      14.36271502      -0.75316714      -1.09984613      -0.31373532      -2.43150051       1.01103441      -0.06914119
C      -21.26950383      -3.55028373      14.53530140      -0.31663634       0.05403925      -0.82845731      -1.34575554       0.73725959       0.30350716
C      -18.94870734      -4.21301675      14.58044716       1.17878301       0.07896909      -0.75200824       0.52802276       0.89057518       0.01144881
N      -19.67398859      -1.91407370      14.04242257       0.87836139      -0.95547810      -0.24457984       1.26394189      -2.08811981       0.19753244
C      -21.61727578      15.51160452      16.47753096       0.25978664       0.29925795       1.09852396       0.97766787      -1.70390947       0.27107492
N      -22.37822717      -2.57576731      14.10373867       0.03500636       1.51624051      -0.24583839       0.81233889      -0.11947645       2.76236406
C      -20.60921024      14.45252799      16.59222670       1.49374550       1.61742918       0.60018101      -0.54665755       0.27502535      -0.61951290
N      -22.77257299      15.42901674      17.09487656       0.07133603      -0.51815954      -0.39199390      -2.31032939       1.21300996      -0.04665072
C      -19.33311129      -5.53183893      14.96289716      -0.71664045       0.74290807       0.55658323      -0.25583185      -0.82681415       0.02581506
N      -21.07130520      13.09589181      16.88165809      -0.94402405      -1.06981528      -0.49001357      -0.19917280       1.85187986      -0.97154720
N      -18.53519754      -6.63479169      14.91169469      -0.28847399      -0.77451523       0.59617442       0.04753154       1.98636452       0.82468291
N      -17.61766365      -3.88339200      14.43355027      -0.30138848      -0.49090627       0.87518057       4.32822283      -1.49338902      -1.09757215
O      -23.39575012      -2.35521111      14.79844682      -1.21981103       0.96784442      -0.20257139       0.99007900      -1.26185629      -0.25893314
O      -22.12316006      -1.91896607      13.15490255      -0.49597494      -0.46824757       1.31210861       0.13512834       0.39903996      -2.19547542
O      -20.85281466      12.21379908      -8.88694322      -1.68009476      -1.12800976      -0.36936632       1.07014239      -1.43513625      -1.36437953
O      -21.82097373      12.94008312      17.79707278       0.28019056       2.51650915       0.25598307      -1.49276019      -0.05559347       2.61420947
O      -16.79030110      -4.89536739      14.41620818      -0.03138918       0.28048438       1.01832860      -1.60603496       3.72357335       0.34276731
O      -17.17131039      -2.70309071      14.22471642       0.34970117       0.36740384       1.01399583      -1.19851235      -2.75278185       0.58340907
H      -18.72501963      -1.70708792      13.85314411      -0.02436456      -0.04021437      -0.28710893       0.71392479       0.76165347       0.02170151
H      -20.33452536      -1.24484271      14.32064113       0.29438326      -0.28609565      -0.37705397      -0.49274375       0.98707803      -0.26832756
H      -23.17037287      14.60942278      17.51895182       0.15766137      -0.31993946      -0.12818724       0.68769592      -0.17015142       0.03509917
H      -23.43265993      16.23063190      16.96315443      -0.10960397      -0.03570479       0.22506207       0.88047887      -1.01219147       0.01154410
H      -17.63528136      -6.48943696      14.55353965      -0.38235479       0.01413595      -0.32223106       1.12368670       0.56030146      -0.28485170
H      -18.94831481      -7.38952079     -10.49720941      -0.13914023       0.15340525       0.10719130      -1.36833277      -2.04700275      -0.50231210
C       -5.76482370      17.58044933      -1.22320838      -1.63514825      -0.66397872      -0.25382708       2.07898436       0.63853606      -1.33354923
C       -7.13761631      17.68652076      -1.14439504       0.19039225      -0.33591318       0.62779868      -1.05100459       0.15216180       1.19250584
C       -5.20461247      17.54393751      -2.54507772       0.23880383       0.03656702       0.19226351      -1.61607813      -0.45951679      -1.08446880
N       -4.94838753      17.57206478      -0.16275131      -0.23398208       0.38720978       1.70483355       2.17797994       0.20933736       0.99441271
C       -8.04533107      17.39560694      -2.22079460       0.31764492      -0.74108181       1.09817923       1.20662217      -0.64457889       2.39341976
N       -7.67525877      18.05093437       0.15512149      -0.32114889       1.31740945       1.06105793       3.25453658      -0.43066414      -0.68685231
C       -7.42768630      17.09742118      -3.42001576       0.91469726      -1.21207452       0.82699177      -0.91206330       0.47480676      -2.85006407
N       -9.32068643      17.14467876      -1.96809734      -0.69452294      -0.14615393       0.39934560       0.46297578      -2.25510829      -5.69609587
C       -6.06966181      17.25933367      -3.69779849      -0.09166283      -0.29260099       0.55392964       1.92028547      -0.04478744       0.85109058
N       -8.33097118      16.70482073      -4.57010922       0.55512770      -1.40451136      -0.81570888       0.92946025      -1.01880098       1.26463781
N       -5.55599971      17.09762522      -4.96657858       1.47996441       0.38157246      -0.46400455       0.51865795      -1.02560153       0.38310222
N       -3.78550695      17.56636427      -2.76782304       0.62598178      -0.35901643       0.34915976       0.98442756      -0.88348770      -0.46856996
O       -8.78118789      18.46115685       0.14388382      -0.56988550       0.01827758      -0.99193443      -2.74806382       0.70984458       1.28965852
O       -6.91960581      18.04606776       1.16539100       0.08531762      -0.95561656       1.51367948      -1.97013803       0.03764425      -0.63350449
O       -9.18821852      15.87185696      -4.26511930       0.53142525       1.52269444      -0.61360055      -0.18356724       0.70163277      -0.28050404
O       -8.12141968      17.05502499      -5.71370878      -0.01753966      -0.15921778      -0.20796402      -0.14970006       0.31438010       0.12723893
O       -3.01644643      18.34218195      -2.20576975       0.03196115      -0.72042849       0.00457827      -1.10705865      -0.35588524       0.06301922
O       -3.36014093      16.70480026      -3.55703818      -1.10993471       0.25162294      -0.96356361       0.05190862       0.57342608       0.22010098
H       -3.90841220      17.44418941      -0.33263052       0.29642092      -0.06909983      -0.22985952      -2.26187701       0.58464870       0.43937769
H       -5.33870734      17.90612538       0.76738400       0.24167674       0.27277179      -0.08412670       0.78285764      -0.97115983      -1.77018548
H       -9.72207878      16.63443815      -2.85062816      -0.33221409       0.27509770      -0.06638805       0.03941930       1.22011956       2.69933066
H       -9.69195910      17.47742549      -1.16488260       0.24775540       0.15579678      -0.19171406      -1.53955272       1.09879880       2.38659964
H       -4.64964214      16.56813150      -4.97893117       0.02759615       0.21243042      -0.10419835      -1.33996698       1.10931725       0.02309527
H       -6.24695022      16.85271467      -5.68106142       0.30464184       0.10221895      -0.15701858       0.73544486       0.26388057       0.46937402
C      -19.33062946      30.50570557      36.65361305      -0.99466897       1.78332688       0.98054832      -2.04395666      -0.88817878       0.73255023
C      -20.38887146      29.80076510      35.95288097       0.07887884       0.57735002       0.07911484       0.48700995      -1.57886323      -0.46275052
C      -19.87522256      31.38381399      37.66965080      -0.15433210       1.27093356      -0.08883903       0.82520101       0.10551984      -0.05034287
N      -18.01772548      30.16694125      36.47373058      -0.98124269       0.31681805      -0.85482111      -2.02889836       0.39995969      -0.20010843
C      -21.80767940      29.82712430      36.20919413       0.67937068       0.34200649       1.56521942       1.26842046      -0.06640499       0.56449218
N      -19.91243022      28.74278546      34.97802128       1.43128343      -0.02179987      -0.93311047      -1.54376961       4.15304489       1.96655750
C      -22.20186723      30.74824072      37.25947979      -0.83262405       0.05585235      -1.11216680       2.58667282      -1.31209421      -2.71391168
N      -22.67756798      28.95786820      35.61594848       0.67478556      -0.49548148      -0.19525526       0.82013288       1.08733125       0.02378328
C      -21.30070227      31.57421025      37.91458782      -1.63919984      -0.20520941       0.30842184       0.73325497       0.87043983       2.06227091
N      -23.54726326      30.81698365      37.47566211       0.69049277      -0.53116889       0.16244868      -2.60846939       0.20528836       1.82751787
N      -21.77109581      32.46353031      38.85277116      -0.99321900       0.77358733      -0.75628055       1.33327474      -0.70558834      -0.98995820
N      -18.91414274      31.97286515      38.56293392      -0.10497152       0.42614202       0.67813757      -2.02692240       2.17595694       1.95081430
O      -20.63576207      27.88656466      34.63240556       0.09964225      -0.50206335       0.32619552      -1.61787276      -3.08029082      -0.93291021
O      -18.85668440      28.96734935      34.47557117      -0.72967574      -0.62958305       1.25648722       2.94681946      -0.47850459      -1.86255009
O      -23.99082479      30.73944359      13.62036399       0.20054732      -0.94447790       0.43693421       0.34741579       0.49766489       0.97600577
O      -24.29375487      30.90252449      36.53799277      -0.96704292       0.16449141      -0.63630257      -0.95752250       0.17373603      -2.10774606
O      -19.30572003      32.85119889      39.41516462      -0.16187870       0.11536404      -0.89069636       0.67333902      -1.78170742      -1.80544052
O      -17.76787002      31.61520141      38.55123935      -0.33681936      -0.72658129       1.12730725       1.10095458      -0.13556776      -0.26287020
H      -17.35848989      30.84512179      36.79288877       0.50076139      -0.01313389       0.01147058       0.38480277      -0.28989373       0.18603604
H      -17.89141471      29.49696517      35.70401693       0.05089102       0.33397702       0.22888533       0.28327514       1.24360193       0.46326635
H      -23.65176873      29.14976704      35.76882737       0.00105112       0.10058922      -0.17181121      -0.01448490       0.01012898      -0.25870836
H      -22.36055207      28.41517529      34.79952559      -0.13174314       0.07606447      -0.13311892      -0.42596750       0.43642271       1.08068989
H      -21.16547993      32.90526932      39.54197848       0.17733027      -0.16906363       0.05007452       0.02486937      -0.32792733      -0.83502172
H      -22.73740533      32.65193101      13.89781001      -0.04515500       0.24645434       0.09163005      -0.92973413      -0.13369664       0.12750320
C      -40.50747817      43.21112937      45.14577121      -1.08875684      -0.61345825       1.06767200      -2.47794707       0.66334132      -1.11356938
C      -41.84511357      42.84418679      45.64974267      -1.14940654       0.46120534       0.03254406      -0.14904444       1.02256038       2.86713585
C      -39.87477566      42.17743615      44.49041801       1.21273546       0.62450122       0.06240987       2.17448629      -3.89443440       0.69765991
N      -40.12600250      44.47170643      44.97836712      -0.11812578      -0.97503617      -0.24883818       0.13342131       0.87469061       1.38107001
C      -42.33275963      41.46232830      45.73723177       0.18013864       0.48806223       1.33858205       0.04618490       2.32901240      -0.24982101
N      -42.53093285      43.87315975      46.67319810      -0.88274939       0.49627267       0.19064309       2.86159914       0.13902136      -3.54734820
C      -41.57084481      40.44607632      45.16846616       1.35735478      -0.56857580      -0.90550529       0.83827480      -0.39802259       0.38517812
N      -43.49504238      41.19336958      46.26323811       0.44563364      -0.94246887      -0.29735448      -0.34032643      -2.33475446      -0.08133866
C      -40.29379736      40.75403007      44.72736156      -0.83090972       0.13974569      -2.14459374       2.29154490       0.23966668      -3.81639246
N      -42.01030878      39.09370237      45.15866003       0.51543716       0.03216860      -0.13541295       3.06437394      -0.97370719      -1.59614585
N      -39.54306647      39.83061879      44.09030672      -0.49664475       0.70716438      -0.67514156       0.68050413       0.40235848      -0.04044353
N      -38.48189649      42.35731001      44.04135406      -0.93567321      -1.09524108       0.00838719       0.42084434       2.51817182      -0.39907513
O      -42.03397857      45.01969780      46.74389517      -0.81908217      -0.46350120       1.46003766      -0.89779257      -1.84572480       0.40574890
O      -43.54588887      43.54311733      47.22125275      -1.40308741       0.16223978       1.00963737      -0.72808722       0.17038820       1.03405638
O      -43.16770297      38.81688968      45.15869345      -0.45861499      -1.28537179       0.91380437      -2.10908528      -0.25785710       0.74725564
O      -41.12620375      38.20237892      44.96696632       0.60475190      -0.32100937      -0.22692039      -1.57556485       0.68767717       0.80353050
O      -38.17630463      43.53322105      43.70623742       0.25186269       0.35999833       0.39724259      -0.44834927      -1.30042035       0.23351062
O      -37.60731701      41.50455346      43.98484808       0.57682650      -0.29179682      -0.33556929      -0.94638939      -0.27596236       0.35042094
H      -39.24129494      44.71802528      44.50929771       0.02456671      -0.08461134       0.20590340      -0.97191377      -0.72756080       0.54670985
H      -40.56338776      45.11750942      45.64256578       0.01659870       0.08430307      -0.04825976       0.06891461       0.07598853      -0.71677402
H      -43.83368863      40.19440299      46.25077112      -0.41883669      -0.07409023      -0.35969819       0.31983388       1.89865493       0.12624916