24
Lattice="13.9116 0.0 0.0 0.0 13.9116 0.0 0.0 0.0 13.9116" Properties=species:S:1:pos:R:3:momenta:R:3:forces:R:3 energy=-27544.73493004627 free_energy=-27544.73493004627 stress="-0.0009178628034661866 -0.0006507077950598292 0.0008562521015034216 -0.0006507077950598292 -0.0009265617900906097 -0.0005362785898654277 0.0008562521015034216 -0.0005362785898654277 -0.00034643102350511205" pbc="T T T"
C        0.01281615       5.58284399     -10.26135411      -0.20824831      -0.93538129      -2.71115248      -1.74898407      -0.36939922       3.38169147
C       -1.27787502       6.13638171      -9.56545661      -0.96211396       3.57946438      -0.45533682       0.67224583       1.76770713      -1.07599108
C       13.28615868      28.06587557      -4.60093532      -0.42524039      -0.67046039      -1.02665454      -2.66023323       1.22460336       2.08168236
N        0.42317374       4.42930097      -9.88558542      -2.23356841       0.79463939       2.27477906      -0.61098942       0.39636676       1.98769175
C       -1.66719115       5.18701063      -8.58789986       0.70877935      -1.56970553       0.48820952      -0.78920812       0.43653621      -0.56620011
N       42.21016166      -9.24041166      29.27297959       1.46070965      -0.76933584       2.01877365      -2.23205653      -0.31601597      -0.36841049
C       -1.95776700       7.35010407      -9.76056497      -0.56522313      -0.26271172       0.54426334      -1.12284335      -5.47138578       1.83562829
N       -1.54286456       4.25620471      -7.93610301       0.13457794      -1.65137873      -1.72556106      -1.12792714      -0.57028992       1.51953687
C       -1.32612111       8.50511408     -10.10828104      -1.62221854      -1.66688767       0.88655457       1.11215289       1.77053160      -0.94036038
N       -3.45769000       7.13991703      -9.31553427       1.60181393       0.74509674       1.36419086       2.76981849       6.37694260      -0.39812112
N       -0.57527281       9.32840508     -10.40438120      -0.81042686       1.65800919      -0.44473700      -0.42509480       0.09391946       0.04078422
N       12.38210049      28.53771100      -3.91850217      -2.68834578      -0.83676928       2.46174705       6.80605909      -3.65526118      -5.01103980
O       43.32006561      -9.16154903      29.14650841       1.30797204       1.80579580      -0.29215194       2.51680567       0.10971443      -0.54296755
O       22.01159375     -14.69809017      21.20503730      -1.77134987      -2.58723647      -0.21223898      -2.63436630       0.50095494      -1.03628537
O       -3.89856903       6.08650542      -9.44861144       0.43604933      -1.53250387      -3.14129587      -1.79301232      -3.90046746      -0.13673193
O       -4.00914745       8.17865631      -8.96676882       0.93297619      -0.81803148      -0.10195696       0.03657841      -0.78739665       0.06045055
O       11.54722724      29.05813980      -3.33412299       4.75439406       1.46253272       1.79448127      -4.10822490       2.40906519       2.92735293
O      -17.86105567     -79.46648293       9.05010002      -0.19809652       2.77661198      -1.63267113       0.74766092      -0.29022045       2.69915754
H        7.34286116      26.74321137      20.60969736      -0.47703060      -0.23491711       0.41019761       1.78599596       0.49270413       1.26639294
H       -0.12010684       4.08263975      -8.90506157       0.03838182      -0.03627314      -0.00987277       2.34554901       0.35816757      -3.69500592
H        0.46147141       6.26281228     -10.94072402       0.25868605       0.52253778       0.19837914       0.37552394       0.10761771      -1.06524522
H       36.60123670     -15.33732526       7.21113903       0.14590099      -0.54888425      -0.27958306       0.83982134      -1.02257983      -0.25336589
H       -4.52494861     -50.99319041      -5.24587478      -0.20090036       0.52356116      -0.42403402       0.29852021      -0.71320141      -1.45430972
H      -17.29934882     -80.23459866       8.85438055       0.38252136       0.25222763       0.01567055      -1.05379158       1.05138677      -1.25633434
