1296
Lattice="-21.204061033122894 11.176325893768235 5.919939608701128 0.0 23.522759854856524 13.60685430430793 0.0 0.0 -26.900273248903375" Properties=species:S:1:pos:R:3:momenta:R:3:forces:R:3 energy=-1487860.835885135 free_energy=-1487860.835885135 stress="0.0020248208649762626 -0.00038040681480855517 0.0007532513765786207 -0.00038040681480855517 -0.0008197072320450284 0.0004946474880557128 0.0007532513765786207 0.0004946474880557128 0.0013283639191564085" pbc="T T T"
C      -19.70429327      14.81891301      -0.49193514      -0.74374898       1.19912820       0.28366343       0.94943573      -1.31744856      -0.66168936
C      -19.59296875      13.57441056      -1.21722535       0.16486198       0.18545064      -0.27736583       0.28179965      -0.76137002       2.16830064
C      -19.35777885      14.71032570       0.87027110       0.47141525       0.32310591      -0.06701814      -1.67513253       0.89956139       0.84659387
N      -19.97637534      15.95913835      -1.09769017       0.67436545       0.42547141       0.15566215       0.32674074      -1.25158787      -1.83905817
C      -19.48746627      35.81407952      13.12220810       0.46765681       0.39246131       0.12242530      -0.42324029       0.12737114      -0.84221498
N      -19.64978363      13.54729908      -2.60763204       0.90460759       0.77814617       0.83381970      -1.03821994      -0.36952821      -0.80052744
C      -19.43852260      35.82172588      14.58926988       1.09519244      -1.02994577       0.30099125      -0.30840375      -1.61656800      -2.20859934
N      -19.46974539      34.63071020      12.48067183       0.70513353       0.66433911      -0.05280581       0.07508981       2.56778213       1.48840510
C      -19.49197297      13.50821864       1.67215596       1.04853397      -0.40511563       0.32590744       1.60155236       1.01456758      -0.37336212
N      -19.40861327      34.54322502      15.27010631       0.71092052       0.28296322      -0.64871617       0.60798539       0.04726153       0.20020048
N      -19.44620983      13.57878670       2.97729026      -0.87159344      -0.21211538       0.10297831      -0.26819998      -0.84567891       0.38936149
N      -19.61094949      15.90269342       1.62660369       0.46202765       1.11061498       0.70777728       0.21515522      -0.54537002       1.22474426
O      -20.03657190      12.49139100      -3.10317868      -0.04142981       2.03788307      -0.36274666       0.30224847       0.23974763      -0.99775884
O      -19.39026233      14.54352153      -3.29638980      -0.34769545      -0.71998580      -1.47193009       0.01677626      -0.29155627       0.31618135
O      -19.75200357      34.49092273     -10.44588279      -0.00448338      -0.81250759      -0.23969342      -0.04801502       0.27118412      -0.46976083
O      -18.98422204      33.52635787      14.68024892      -0.51067036      -0.21643019      -1.21387566      -0.33257947       0.91612158       0.92723335
O      -19.08963416      15.95747404       2.73822966      -0.63627282      -1.12167754       0.81565480       0.15210037       1.32319187      -0.36984516
O      -20.38094172      16.76194872       1.22459915      -0.57963430       1.58933388       0.00002031       0.01120147       0.66168872       0.04632133
H      -20.13895771      16.79971053      -0.61345300      -0.10078568      -0.17431790      -0.04691972      -0.17974773       0.73577291       0.53732047
H      -20.04111787      15.91890194      -2.12060289       0.03832243      -0.10458800      -0.04140567       0.11639038       0.24530359       0.64325790
H      -19.27591512      33.86166573      13.05551366       0.28130851       0.40017421      -0.03410235       0.24732579      -1.38062449       0.45007442
H      -19.80599915      34.49677969      11.56926868       0.04724087      -0.09207659       0.04734171      -0.09438840       0.26890292      -1.33523120
H      -19.33997410      14.43656933       3.47655848       0.14925020      -0.09096770       0.11336011       0.00181964       0.40262728       0.09582604
H      -19.58412751      12.75099678     -23.39477407       0.01708215       0.12094562       0.12328093      -0.02310710      -0.70806732       0.21791083
C      -15.75573368      12.66621359       0.61900369      -0.22883060       0.19747404      -0.38178059       0.17400074      -1.47067450      -0.11595332
C      -15.68171995      13.83458403       1.45058630       0.22736105      -0.63565348       0.56736620      -0.33492444       0.11193970      -1.45607685
C      -15.94317639      12.77775075      -0.83270003      -0.73672480      -0.13992606       0.64245984      -0.17254240       2.15806718       1.79200310
N      -15.64233785      11.45660900       1.16561033      -1.08721484      -0.47275872      -0.22557456       0.30328245      -0.63218318      -0.25831719
C      -15.88585925      15.14533528       0.87477338      -0.69756014       0.34976078       0.10914612       0.52771671       0.17229151       3.24854260
N      -15.29926118      13.67056119       2.79112240      -0.76095559       0.92466820      -1.34409466       0.46557685      -0.31045195       0.71007590
C      -15.95265162      15.23418730      -0.49386781      -0.59545572      -0.11483963      -1.48729653      -0.72812282       2.10467401      -1.14305678
N      -16.01918111      16.23124525       1.66590473       1.45860220       0.10467349      -0.99449828       1.14791542      -0.62047815       0.66470312
C      -16.06047541      14.14736540      -1.35211363       0.00710247      -0.59946219       0.32088194       0.11352920      -1.96361210      -1.93435418
N      -16.03477708      16.57323463      -1.08459129      -0.01876028       0.15175347      -0.33922386      -0.54596373       0.86852243      -0.51333424
N      -16.28105406      14.31611774      -2.65359831      -0.33980706      -0.94297534       0.53070808       0.58690637       0.23566212      -0.13092979
N      -16.01818739      11.64193105      -1.65322776      -0.85568627       1.26765807       0.27153489      -0.53860173       1.06520419      -1.67625652
O      -14.85979017      14.64331245       3.40305074       0.26164036       0.23704340       0.06584213      -0.63581433       0.24765575       0.25953346
O      -15.34621720      12.55728035       3.33077238      -0.48792914       0.59616671       0.62982319       0.02125984       0.86366750       0.20077382
O      -15.70628133      16.74572500      -2.26351560       0.60251463       0.50616305       0.33097809       0.10362601      -0.23412297       0.87474371
O      -16.46704484      17.53866306      -0.42900641      -0.10659836       0.51497596       0.40231888       0.29525304      -0.99018496      -0.66423125
O      -16.24031704      11.78862571      -2.88057469       0.97439801       0.67950930       0.87633800       0.41856508      -0.51995342       1.25388281
O      -15.88615675      10.52593708      -1.17545716       0.21802743       0.57988169       0.37072507       0.27699714      -1.02251556      -0.03371681
H      -15.66438129      10.64826040       0.53655227       0.12013764       0.18173858       0.06624574      -0.00064972       0.74185255       0.51106519
H      -15.39836605      11.29951030       2.15785948       0.12808623       0.20868533       0.25583485      -0.53796152       0.61468832      -1.07331167
H      -16.16356433      17.13341920       1.24678411       0.04735717      -0.09571779      -0.06220756      -0.14104263       0.01996283      -0.27864592
H      -15.54231264      16.27636139       2.57621950      -0.06279056      -0.03404596       0.06584667      -0.72310767      -0.75623229      -0.75820789
H      -16.10949550      13.50689434      -3.21507791       0.10133089       0.26166390       0.08715787      -0.52813380      -0.51427691      -0.36439390
H      -16.25196131      15.20522038      -3.14932651      -0.16905818      -0.07748978       0.01019748       0.02041872      -0.37245803       0.96452709
C      -12.38659273       9.57775356      -0.66226440      -0.99959015       1.04016006       0.82831691      -0.21681167      -0.47868612      -0.44204808
C      -12.46306102       8.24397776      -1.35511719       0.29954841       0.05542133       0.20399222       0.80799065       2.26795235      -0.90321639
C      -12.23021287       9.62532852       0.79844131       0.32680705      -0.52601646      -0.78498728       0.19159118      -0.02184671      -1.78501098
N      -12.49704633      10.68968525      -1.36446183       0.24798647      -0.38400463       0.56133430       0.40084056      -1.98652639       0.53464519
C      -12.17437043      30.57695572      12.91408087       0.32559951      -0.80027091       0.87793243      -0.58898924      -0.30637208       1.06462345
N      -12.58663883       8.24506910      -2.81291008      -0.30719382       0.50295312       0.45189617      -0.43595853      -0.18400117       2.44273296
C      -11.96234296      30.69197904      14.32292045      -0.00022232      -0.34475369       0.29097592       0.33554230      -2.15472264      -0.65807973
N      -12.30032552      29.40014074      12.31824551      -0.34303066      -0.75977396      -1.51085669      -0.02104870       0.85883496      -1.42559184
C      -12.04321675       8.35368392       1.47698283       0.80920820       0.29087738       0.21943242      -0.69126563       1.30427373       0.82891233
N      -11.93045905      29.38758987      14.99988628       0.75165679      -1.17818729      -0.09213431       1.02031429       0.35222687       0.11499861
N      -12.01894701       8.32633003       2.79413746       1.10047033      -0.31060168       0.57977629       0.34741844      -1.75176368       1.59128110
N      -12.24207312      10.92737150       1.48826473       0.40904288       0.75316000       0.23062548      -0.58241569       0.34059597      -3.83947417
O      -12.69577304       7.19645934      -3.44710343      -0.34522753       0.12416794       0.50611895       0.02767852      -0.10665577      -0.48979520
O      -12.67632060       9.32781626      -3.33749712      -0.84868075       1.15292312       0.59178062      -0.10062378       0.59998848      -1.83672825
O      -12.37592394      29.41358005     -10.76849110      -0.43229427      -0.53518932      -0.51869529      -0.60324847      -0.95634576       0.92456858
O      -11.43320922      28.35363243      14.52941973      -0.25792635       1.22373947      -0.23254712      -0.30876990       1.33871073      -0.13301348
O      -12.05450368      10.98233944       2.65893299       0.36721615      -0.51798174      -0.01233873       0.33976871       0.17767681       2.03844946
O      -12.44836603      11.99242057       0.78406191      -0.02928118       0.21049091      -0.39442621       0.38677400      -2.08116631       1.89052926
H      -12.50679133      11.51922504      -0.84429241       0.13212976       0.04018242       0.21489726      -0.00312011       1.42930696       0.69494731
H      -12.44061250      10.67398905      -2.37381071      -0.05191906       0.05709223      -0.09666811      -0.21327234      -0.04094968       0.30590180
H      -11.80248889      28.57683247      12.57930904       0.04111487      -0.15137963      -0.06283404      -0.16713304      -0.21923755       0.75345828
H      -12.57410195      29.46989798      11.33185694       0.07221956       0.19619852      -0.01197427       0.27161052      -0.43888569       0.60971615
H      -11.88415916       9.10058935       3.40220726      -0.12853352      -0.27982042      -0.16330092      -0.15154009       1.14146143      -0.39145268
H      -12.07180804       7.43784076     -23.56819121      -0.24638645      -0.10171518      -0.05468628       0.05778380       0.90883767      -1.30561216
C       -8.71366793       8.16897164       1.42260778       0.48701597       0.72973805      -0.00826835      -0.01843949       0.10937423      -0.38802347
C       -8.66316178       9.35489137       2.21009137      -0.23051038      -0.31053877       0.26943500      -0.72932112       1.59206569       0.69243226
C       -8.80118138       8.32144375      -0.00438281       0.50857397      -0.14184793       0.91924558       0.75674035       0.84219878       0.02154506
N       -8.69687187       7.00098639       2.01285151       0.46710944      -0.12861230       0.22352904       0.10972169      -0.92836236      -0.71863013
C       -8.62487645      10.68969972       1.64685188       0.33796127      -0.88195561      -0.09339236       0.85650856      -0.13548163      -0.55955035
N       -8.71265672       9.24880220       3.64286787      -0.90382029       0.47663411       0.43463558       1.92893460       0.84817155      -0.58152680
C       -8.73258135      10.83782086       0.21834677      -0.57532599      -0.66999616      -0.59352117      -0.54828835      -1.85212463      -0.74813988
N       -8.30506300      11.75253275       2.37509890       0.10403330      -0.41534958       1.03272266      -0.68886004      -0.80525409       0.04314684
C       -8.79647656       9.64081784      -0.62902563       0.22116103      -0.44276265      -0.62128243      -1.20554807      -0.52769668      -0.05343756
N       -8.85319353      12.11360304      -0.42197720      -1.08858485       0.17230783      -1.14472453       1.54607994      -0.89637733       0.56417533
N       -9.01691697       9.68320433      -1.94502976      -0.29041872      -0.28504698      -0.16958893       0.54154357       0.48457141       2.18138965
N       -8.69372013       7.12899801      -0.83548959       0.25805445      -0.04843444      -0.49606524       0.00408165       1.19132768       1.96005655
O       -8.40893175      10.22182235       4.36758483       0.34126846       0.44966171       0.33919961      -0.63752683      -0.19725745      -0.28983226
O       -8.87946938       8.16428292       4.15273896       0.43623116       0.08130510       0.31465619      -0.87415864      -0.82114457       1.01392828
O       -8.46355648      12.19704803      -1.59131434       0.74106403      -0.22689802       0.22256291      -0.51497686       0.28947505      -0.47533969
O       -9.18950873      13.08857028       0.22408228      -0.05033139      -0.05581503       1.76578343      -0.56082228       0.51111771       0.11345426
O       -9.11376231       7.12289509      -1.95974177      -0.27674699       0.44310437      -1.06936900      -0.51022503      -0.21320998      -1.39529904
O       -8.19506434       6.14515095      -0.30731573       1.16292538      -0.18513882      -0.01717997       0.35367795      -0.96128571      -0.13764696
H       -8.54381571       6.17646897       1.39661736      -0.03483612       0.15873806      -0.32340034      -0.26804083       0.87577699       1.15492701
H       -8.75818586       6.99083296       3.04880384       0.17020943      -0.02339783      -0.12590285       0.02386196      -0.35756887      -1.09837292
H       -8.44235023      12.64354423       1.96642569       0.21425772       0.08043715       0.07595702      -0.06338610       0.70635221      -0.29128783
H       -8.32132406      11.65461665       3.37595963       0.00080036      -0.08405821       0.16919148       0.13516482       0.17885625       0.02588203
H       -9.08754197       8.83763344      -2.45360446      -0.14534519      -0.22124309       0.24584075      -0.03799023      -0.70683876      -0.56990157
H       -8.86842703      10.53972630      -2.40165598       0.19655238      -0.17288937       0.08121251       0.07958888       0.98513253      -0.70786815
C       -5.08261431       4.87747539       0.62195397      -0.53504756      -0.93835444      -1.02546153       0.33225787      -1.71432951      -0.67364856
C       -5.06735081       3.59932411      -0.06756072      -0.40057368      -0.39460979      -0.02430949       0.85184195       0.03141970      -1.34976447
C       -5.10971277       4.87434431       2.00954237       0.23862645      -0.00654632      -0.62750351      -0.67748407      -0.63512687       2.02630467
N       -4.99856137       5.90958027      -0.14993326       0.28441684       1.30808290      -0.68687832      -0.52415204       4.34584528       3.38136751
C       -5.30494261      25.89295761      14.18099282       0.12011121      -1.53015334       0.67150510      -0.02896897      -0.80816844       1.94604858
N       -4.68004995       3.57249191      -1.45331896      -0.11164385       0.11453358       0.31320578      -1.12342113      -2.08577071      -2.36001721
C       -5.40140207      25.96022936      15.63559207       0.21420873      -0.35861535       0.34060134       0.94407589      -0.32029590      -0.36753061
N       -5.37392666      24.69528413      13.60717811      -0.91299185       0.87047733      -0.18642789       0.49990112       0.78258496      -0.35608833
C       -5.21910133       3.64438411       2.75918496      -0.32943431       0.18148292      -0.58225461      -1.25921700      -0.84784899       1.22555037
N       -5.46543497      24.70104394      16.35877297       0.65355058       0.32117245      -0.06477257      -1.74294587       0.46534866       0.54700368
N       -5.41648741       3.61517919       4.11089506      -0.43537463      -0.55763501       0.14168528       0.61390026       0.52277552      -0.97008281
N       -5.25035605       6.07239096       2.75316652      -0.35263924       0.22996011       0.35120876       1.02464088       0.06796920      -1.04936264
O       -4.82602930       2.47478009      -2.11823616       0.41178991       0.03530865       0.75110236       0.52264568       2.05526380       1.75282475
O       -4.28342221       4.55563612      -2.09982381      -0.12063548       0.81725098       0.13898344       0.03651110      -0.62059873       0.94799160
O       -4.99195648      24.60453821      -9.38878872       0.24249211       0.59856633       0.52291688      -0.16202194      -0.30580386      -1.48620366
O       -6.17629138      23.80694901      15.85169972       0.50362293      -0.05177329      -0.05264935       1.64615760       0.40857600       0.86779326
O       -5.03334738       6.05413394       3.95127391       0.14837226      -1.19473506      -0.54741040      -0.31013232       0.72773280       0.66587092
O       -5.47380452       7.13095776       2.15130596       0.33534367      -1.50832016      -0.50833640      -0.24758453       0.14981405      -0.30806863
H       -5.06255881       6.89992623       0.24271639       0.11774670       0.22687152       0.20066461       0.15539175      -2.28034335      -0.74595906
H       -4.93633356       5.71626393      -1.08778512       0.22009035       0.12069413       0.00246951       0.32567216       0.37388454      -2.55761290
H       -5.64472657      23.89797247      14.16746129      -0.00175285       0.43453454      -0.20092971       0.08097905       0.11296375      -0.33486803
H       -5.02168676      24.63588276      12.66393599       0.18307370      -0.31623874       0.16345079      -0.47541700      -0.24725098      -0.04418335
H       -5.23687538       4.48093758       4.62328464      -0.01889483      -0.18136566       0.00854997       0.02449198      -0.57631499      -0.30966837
H       -5.43483340       2.74910498     -22.25310177       0.00057215      -0.02545972      -0.07833652       0.21151621       0.41463730      -0.76009732
C       -1.89279765       6.85694089       3.21269128      -0.67329601       0.76122267      -0.22944941      -0.93664249       2.61931969       1.88732356
C       -1.96533039       8.25189481       3.80621341      -0.53558590       0.02208797      -0.77700934       0.34924891      -2.69321349       0.41894884
C       -1.77502124       6.77950671       1.83823428       0.70205189      -0.23759916      -0.14642286       0.76713347       0.23553653      -2.29265846
N       -2.02248561       5.79807248       3.98125442      -1.35144977       0.20217119       0.12098422       1.13273272       0.08113583       0.46437066
C       -1.81657849       9.40068785       3.05034080      -0.39603725       0.10952613      -0.36379697       0.18103205       0.03535753      -0.87065952
N       -1.98447172       8.35658048       5.24641203      -0.85563426       0.65398149      -0.17262298       0.57727761      -0.56695220       0.19415596
C       -1.83895201       9.28881613       1.61585866      -1.64881549       0.37832597       0.87401038       0.00721185      -0.90951336      -1.00455190
N       -1.70955250      10.53708552       3.68295668      -1.00077096       0.05662665      -0.33827808       0.33195985       1.84398547       0.85525738
C       -1.86095336       7.95775513       0.98194735       0.37243421      -0.17200285       1.47781760      -0.14849197       0.81307791       1.77460210
N       -1.79921064      10.47208212       0.79989004       0.40541575      -0.65751429      -0.90611090      -0.07526175      -1.10028026      -0.94892994
N       -2.03491146       7.81707476      -0.29112155       0.58059182       0.93706463      -0.77217705      -0.16735401       2.41535694      -1.80035920
N       -1.59962284       5.45727501       1.22403499       0.81899518      -0.89509999      -0.66580110      -1.86138161       1.55512543       1.77090144
O       -1.47743333       9.25940749       5.94647912      -0.65234308       0.25476931      -1.50791497      -0.14714945       0.40385836      -1.26912443
O       -2.49403595       7.41514321       5.82848159      -1.01499360       0.53576863       0.47415353      -0.96683542      -0.69003123       0.77843131
O       -1.89232406      10.40147049      -0.45156253      -0.52596177      -0.24694622      -1.44763328      -0.09489883      -0.33053514       0.97349994
O       -1.66068946      11.56268741       1.31829842      -0.29423000      -0.56593336       0.01829068       0.23135345       0.68619227       0.63592281
O       -1.23685718       5.30944392       0.09367894      -0.08593967      -0.40388133      -0.20385861       0.95944077       0.10232701      -1.52986225
O       -1.97451087       4.52541522       1.92653263      -0.20811479       0.86572195      -0.07940335       0.53121557      -1.26463436      -0.46647150
H       -1.61295009       4.96442090       3.58348219      -0.16138443       0.04462257      -0.13799709      -0.74862899      -0.15067125       0.64792560
H       -2.10965613       5.97972419       4.97386468      -0.03788163       0.12621785      -0.01499126       0.04238270      -0.55222967      -0.32971268
H       -1.70391257      11.39110678       3.11428038      -0.09547997      -0.06833546       0.09801135       0.25349912      -0.50833311       0.66883508
H       -1.52309383      10.51713341       4.71234328       0.10949493      -0.02128159      -0.14718439      -0.35772026       0.51821727      -1.59298823
H       -2.12317958       6.94416567      -0.71753957       0.06897471       0.12811074       0.19386250       0.11090031      -1.46398263      -0.33569580
H       -2.19920832       8.63070314      -0.94572084      -0.07678464      -0.04377497      -0.22434088       0.58264869      -1.02223273       1.44905291
C      -19.75755340      22.74250939       3.85435320      -0.62432432       0.32748484       0.17690600       1.19811552      -1.48407603       1.98540077
C      -19.69155556      21.51579373       3.17680411      -0.16628704      -0.21892637       0.66598304       0.30686095      -1.88604227       0.09736411
C      -19.53543133      22.65036022       5.28388697      -0.38916436      -0.60975237       0.08461751      -0.65941525       0.90169558      -0.42704142
N      -19.82902435      23.86965686       3.23818221       0.52858169       0.07872249      -0.49875439      -0.70749631       2.49101879       0.11209630
C      -19.60370265      20.25172451       3.92752224      -0.30763739       0.59339237       1.00499311       0.41482656       1.20912234      -0.04376743
N      -19.65552525      21.54172669       1.74256445      -0.29516657      -0.39270795      -0.00263837      -0.52633183       1.22788420       0.02362821
C      -19.45906708      20.23025780       5.37312632       0.31903436       1.64163230      -0.14881657      -0.00061457      -0.03521243      -1.65846044
N      -19.56868866      19.15212465       3.24371071      -0.70067100      -0.49546643      -0.56774742       0.20382750      -3.19088900       0.72790490
C      -19.40404969      21.44182793       6.05724075       1.67125742       0.38505005       0.23946920      -0.59966334       2.62175353      -0.82305867
N      -19.22270091      19.04109372       6.07987494       0.25514910       0.19820252       0.17504632      -0.80184104      -0.27333455       2.10942590
N      -19.31451458      21.57234186       7.34657494      -0.02162882       0.88331481      -0.05239868       0.30908550      -1.78265416       1.15346742
N      -19.65514697      23.91298320       5.98867807       0.21388328       0.80419127       0.60867493      -0.84923356      -0.90435091      -1.04210581
O      -20.08039199      20.61037059       1.06898700       0.36901102      -0.37636347      -0.21383283       0.35083180      -0.73102944       0.08045305
O      -19.26444593      22.58835891       1.17973490      -0.15448708       0.33704082      -0.30139236       0.03506535      -0.99693040       0.13817740
O      -19.48541783      19.04190640     -19.56852766      -0.50161738      -0.41094534       1.17498697       0.46762100      -0.48375386      -1.97991428
O      -18.81927840      18.04160362       5.52375826       0.32255170       0.76823497       0.29935173      -0.01265239      -0.22529108      -0.16044802
O      -19.00791718      24.11487799       6.98366971      -0.17139786       0.00824437      -0.47776418       0.86140743       0.35682286       1.32511721
O      -20.45573531      24.74039848       5.55523745       0.46008744      -0.03371443       1.10186233      -0.16138454       0.49238136      -0.03777560
H      -20.12021837      24.70183543       3.75485569       0.04818023      -0.11988101      -0.14010083       0.44950997      -0.48832410      -0.37234987
H      -19.67114508      23.93190905       2.25114508       0.03203801       0.05992286       0.04696017      -0.12308133      -0.08448456      -0.27180455
H      -19.46550099      18.17421683       3.58775861       0.14208795      -0.15507715      -0.16126401       0.02762412       1.64425945       0.53550166
H      -19.73067090      19.15543461       2.28739455       0.22043667      -0.14945059       0.02718110      -0.39130076       0.52080601      -1.87250991
H      -19.07171320      22.44982670       7.73918707       0.27438116       0.17633618       0.22037287       0.02697916       0.58014610       0.47551251
H      -19.26489071      20.70291658     -19.01829232      -0.05916467       0.17331111      -0.16820061      -0.04433302       0.66674263      -0.04377688
C      -16.12202504      20.62733520       5.33521012      -0.22585436       0.17024974       0.40466891       0.05629589       2.28900974      -2.56971706
C      -16.05939720      21.97062721       5.88035648      -0.22935901      -0.16255010      -0.13282501       0.36203139      -2.34535425       2.06506172
C      -16.29868310      20.53937900       3.89904222      -0.30929172      -0.61935070      -0.31903232       0.35643531       2.85598795      -0.32626269
N      -16.01784671      19.53047128       5.99865937       1.83774401      -0.00273814      -1.16301237       1.57401400      -1.44069878       3.08943463
C      -16.19558653      23.16779522       5.19881377       0.21062168       0.15461477       1.07744924      -1.00212869       1.44833689      -0.55256243
N      -15.81325103      22.04159356       7.29563364       0.42231480       0.04851638      -0.05879478       0.24747487      -1.60681250       0.71797395
C      -16.42017198      23.01891868       3.78595393       0.35686377       0.13544187       0.05368967       0.41916491       0.54313665       0.59141379
N      -16.23613785      24.37257121       5.85918032       0.93360833      -0.48757584       0.53629730       1.19585871      -4.08615258      -1.00453683
C      -16.25418969      21.75175358       3.07787973       0.16993023      -0.48084742      -0.49777344      -1.36695192       1.57599895       1.92324048
N      -16.60255955      24.30484544       3.09507223       0.42109160       0.82752354      -0.43897784       0.02711946      -1.86091178      -0.15043415
N      -16.26860324      21.78352329       1.75900657      -0.73763263       0.28772819      -1.24056817       0.09029812      -0.43340058       1.67107492
N      -16.07007989      19.37120821       3.18750458       0.76238462       0.14232052       0.22621888       0.68833444      -0.01880688       1.40706907
O      -15.28305488      23.04426698       7.75322370      -0.72670162       0.60683690      -0.14638214      -0.21284849      -0.19295393       0.50359743
O      -16.07711789      21.04715695       8.01165594      -0.11647343      -0.11419894      -0.38771407       0.19178027       1.52397747      -0.58679981
O      -16.09989581      24.43682031       1.99470859      -0.67134176      -1.09491902      -0.94086889       0.44399614       0.32145200      -0.81157817
O      -17.28607533      25.16255146       3.61655072      -0.14689103      -1.77057857       0.15062009      -0.01893546       0.64418331       0.40467383
O      -16.32144890      19.30812434       2.01635889       0.04177009       0.53817256      -0.73593401      -0.74477757      -0.47454556      -2.01632445
O      -15.54924575      18.44621628       3.78277089      -0.24948940      -0.73948168      -0.79013099       0.48409317      -1.93532530       0.20896618
H      -15.85997109      18.66544766       5.52601382       0.06240903      -0.19483815      -0.06170550      -0.38839871      -0.23771908      -0.61469376
H      -15.58703444      19.51326219       6.94433642       0.08366900      -0.04951648      -0.14323489      -1.22903339       0.42577440      -0.82385276
H      -16.63299346      25.07630426       5.35149200       0.18183494       0.25772221       0.31486894      -1.07419460       2.38305787      -0.83753591