24
Properties=species:S:1:pos:R:3:forces:R:3 energy=-27551.066790318284 free_energy=-27551.066790318284 stress="6.0292959802727315e-09 8.742518828683472e-09 4.741950071922758e-09 8.742518828683472e-09 2.431131732494215e-09 -3.5051953935740164e-09 4.741950071922758e-09 -3.5051953935740164e-09 4.1856579842756516e-10" pbc="F F F"
C        0.69623616       1.30055440      -0.51306806       0.00329152      -0.00195105       0.00128510
C        1.41258223       0.05031930      -0.11876635       0.00412035      -0.00428470       0.00205216
C       -0.69703741       1.27547522      -0.03346054       0.00351340      -0.00456568       0.00129120
N        1.35046181       2.15516156      -1.18713569      -0.00398917      -0.00203318      -0.00424906
C        0.73995967      -1.22678027      -0.34746008      -0.00270712      -0.00060570      -0.00558272
N        2.58250200       0.15754512       0.47664240      -0.00234914      -0.00086315       0.00211491
C       -0.65262952      -1.20477245      -0.19998546       0.00178623      -0.00050612       0.00396917
N        1.45502444      -2.27751212      -0.71424117      -0.00263967       0.00207117      -0.00073143
C       -1.34176596       0.04766791       0.19242510      -0.00102385       0.00065606      -0.00071977
N       -1.39440421      -2.41413660      -0.39834664       0.00129932       0.00020369      -0.00980349
N       -2.55701984      -0.02871361       0.70481975      -0.00700355       0.00243970       0.00062081
N       -1.38813966       2.50644034       0.13665871      -0.00166300      -0.00265046      -0.00818605
O        3.19956434       1.15721344       0.78518433       0.00048334       0.00096994      -0.00206441
O        3.21711555      -1.04261781       0.83146798       0.00359435       0.00254679       0.00093504
O       -2.60183529      -2.44929737      -0.18241704       0.00687613       0.00020792       0.00267636
O       -0.80028701      -3.41942430      -0.78975276       0.00139755      -0.00193995       0.00171443
O       -2.47553295       2.53488402       0.72360906       0.00585785       0.00522392       0.00346378
O       -0.87854916       3.53117420      -0.29616575      -0.00263252      -0.00612094       0.00430576
H        0.77407883       2.96946504      -1.37466614       0.00101409       0.00543322       0.00482931
H        4.00170692      -0.66712798       1.25832679      -0.00764198      -0.00071633      -0.00199283
H        0.96753313      -3.14941118      -0.85893248       0.00475060       0.00207031       0.00261590
H        2.45188573      -2.20245080      -0.75815711      -0.00056784      -0.00262091      -0.00087527
H       -3.00494581       0.84961560       0.92351129      -0.00565912       0.00553932      -0.00283852
H       -3.02762189      -0.91602622       0.68310877      -0.00010775       0.00149615       0.00516963
