24
Properties=species:S:1:pos:R:3:forces:R:3 energy=-27551.27646773174 free_energy=-27551.27646773174 stress="3.806328488402582e-10 -3.4470222500718685e-10 3.338362446304559e-12 -3.4470222500718685e-10 1.0139238526870797e-11 -2.276190652351324e-12 3.338362446304559e-12 -2.276190652351324e-12 2.3253374568965457e-12" pbc="F F F"
C        0.61026178       1.23938101       0.01074653       0.00118278       0.00332505       0.00158889
C        1.34028351       0.02090453       0.02153554      -0.00450085       0.00250377      -0.00442629
C       -0.79139112       1.26708405      -0.00296985       0.00295420       0.00138035       0.00118366
N        1.55259191       2.14330005       0.01738330       0.00296107       0.00314321      -0.00237038
C        0.67800611      -1.26494075       0.01910096      -0.00269957      -0.00165938      -0.00492990
N        2.61891729       0.22751691       0.03165443      -0.00427201       0.00080375       0.00296918
C       -0.73729834      -1.24603141       0.00288629      -0.00326978      -0.00494564       0.00081645
N        1.47904834      -2.30848454       0.03045264       0.00138251       0.00140425       0.00327329
C       -1.48869522       0.01164895      -0.00786388       0.00218400      -0.00052670      -0.00173335
N       -1.42230377      -2.50376297      -0.00297404      -0.00095033      -0.00433748       0.00155606
N       -2.79884328       0.01109241      -0.02191549       0.00352048       0.00289005       0.00176026
N       -1.41153873       2.53930842      -0.01306933       0.00020895      -0.00337720       0.00102413
O        2.81570827       1.54689025       0.02928483       0.00022432      -0.00007323       0.00190855
O        9.99935929      -0.00049654       0.00000000      -0.00006673      -0.00005171       0.00000000
O       -2.64738325      -2.55066145      -0.02721176      -0.00124386      -0.00040776       0.00154756
O       -0.75012108      -3.53660133       0.01649598       0.00378576      -0.00492369      -0.00139636
O       -2.63445146       2.64607990      -0.02151041       0.00004076      -0.00506856      -0.00184211
O       -0.66295244       3.51973591      -0.01244610       0.00055664      -0.00307661       0.00224257
H        1.49723973       3.15102837       0.01118508      -0.00115805      -0.00009887      -0.00061945
H       10.75818151       0.58757618       0.00000000       0.00006673       0.00005171       0.00000000
H        1.06904047      -3.23047889       0.03146300      -0.00406835       0.00217827      -0.00211702
H        2.47429128      -2.16141965       0.04011527       0.00394888       0.00156985       0.00050243
H       -3.26406114       0.90728370      -0.02568959       0.00195296       0.00232044      -0.00382634
H       -3.27790097      -0.87590602      -0.02955874      -0.00274050       0.00697614       0.00288816
