24
Properties=species:S:1:pos:R:3:forces:R:3 energy=-27551.066766915832 free_energy=-27551.066766915832 stress="1.098920281918423e-08 1.3730556155347634e-09 -4.8098031157222995e-09 1.3730556155347634e-09 3.0885845391959197e-09 -1.5449459460608841e-09 -4.8098031157222995e-09 -1.5449459460608841e-09 1.8036559529009531e-09" pbc="F F F"
C        0.72036750       1.24794247       0.49171955       0.00223717       0.00048308       0.00427299
C        1.41688027       0.00048852       0.05575915       0.00340866       0.00046540       0.00210610
C       -0.68076494       1.25009534       0.03522776       0.00102169      -0.00307599       0.00180222
N        1.39493856       2.07864000       1.17589127      -0.00263144      -0.00193714      -0.00074633
C        0.73238785      -1.27410473       0.26115058       0.00026941      -0.00331418      -0.00518650
N        2.58132499       0.10973428      -0.55004889      -0.00382760       0.00420824      -0.00297104
C       -0.66103734      -1.23457808       0.12598815      -0.00270410       0.00203132       0.00869996
N        1.43990161      -2.34035407       0.59623073       0.00146811      -0.00008362      -0.00209096
C       -1.34205227       0.03632761      -0.21886129      -0.00188661      -0.00159134      -0.00034370
N       -1.41237755      -2.44244960       0.29782380       0.00067832      -0.00111836      -0.00959978
N       -2.56622001      -0.01104393      -0.71336289      -0.00164978       0.00128638       0.00305150
N       -1.36341332       2.49210266      -0.08152707      -0.00105037      -0.00422020      -0.00065583
O        3.20498646       1.11038092      -0.84179032       0.00167169       0.00142806       0.00312114
O        3.20025445      -1.08751727      -0.94061790      -0.00315913       0.00344629       0.00379490
O       -2.62007604      -2.46304170       0.08152221       0.00458267      -0.00081932       0.00280784
O       -0.82585478      -3.46177291       0.66352918      -0.00049059       0.00673383       0.00146264
O       -2.45781507       2.55103930      -0.65283634      -0.00023380      -0.00316838      -0.00247813
O       -0.83963305       3.49650206       0.38080966       0.00167587       0.00415802      -0.00156042
H        0.83081294       2.89441513       1.39225834       0.00083363       0.00153954      -0.00085371
H        3.98418031      -0.70836131      -1.36558469      -0.00673025      -0.00649680      -0.00068126
H        0.94552638      -3.21092051       0.72358438       0.00037805      -0.00159161      -0.00113782
H        2.43783660      -2.27654398       0.63158783       0.00387651      -0.00066360       0.00007933
H       -3.00944886       0.87804409      -0.89549310       0.00333407       0.00327559      -0.00153792
H       -3.04387464      -0.89482458      -0.71724314      -0.00107218      -0.00097521      -0.00135523
