999
Lattice="27.015980528461593 -13.258894732995048 3.011315575431015 0.0 18.949830344374764 -16.26841435563843 0.0 0.0 17.950581624902547" Properties=species:S:1:pos:R:3:momenta:R:3:forces:R:3 energy=-156971.7112850359 free_energy=-156971.7112850359 stress="-0.0003544402617108915 -8.527297352402311e-05 -0.0026148217919207497 -8.527297352402311e-05 0.0020960433313167563 0.0004143282296310482 -0.0026148217919207497 0.0004143282296310482 0.001687267069026921" pbc="T T T"
O       -6.06890904       3.79958403      10.01978675       0.47399610       0.49962615      -0.25193300       0.67091500       1.24703802      -1.16794676
H       -5.98117875       4.53131355       9.30715708       0.19025923       0.20179628      -0.08149046      -0.53620082      -1.65794189       1.27616566
H       -6.87582103       3.25635702       9.92834457      -0.16189709      -0.35429603       0.23482773       0.02685598       0.21654913       0.04862030
O        1.36574273       6.48426770     -19.03495642      -0.52849591      -0.48714989       0.74386234       0.03719924      -0.07209449      -0.26829013
H        0.56978880       6.86636149     -19.41984267       0.04792558       0.05676011       0.20440372      -0.74597412      -0.12507650      -0.73180240
H        1.28814791       6.98208148     -18.21112810      -0.11751037      -0.09164194       0.08520124       0.62021422       0.06392301       0.73695158
O       -8.50502062       9.81833194      -5.53929217      -0.02717187      -0.06983862      -0.18640638      -1.53614677       0.41649540       0.53257820
H       -7.66591077       9.71641528      -5.94887986      -0.00490815       0.05464188      -0.06529996       2.39043901      -0.59996827      -1.00779780
H       -8.47883422      10.75731778      -5.33855389      -0.04112352      -0.21183365      -0.08708635      -0.61597475       0.75014837       0.25887118
O       -5.84826482      17.05285673      20.32091795       0.08171069       1.04934545       1.19097915       0.01642892       0.95171992      -2.07557840
H       -5.33356140      16.87551090      21.09791407      -0.12498201       0.24220841       0.06069091       0.75684701      -0.44530426       1.38053551
H       -5.23439664      17.58422006      19.74815525       0.08320299       0.13274362       0.10870532      -0.49818927      -0.44890840       0.21633765
O        4.50041412      23.80531791     -16.97795972      -0.36886367       0.17340183      -1.09861232      -1.42209750      -0.51654680      -0.48115827
H        4.98028083      23.90893801     -16.17555372      -0.03854218      -0.12437034      -0.01290420       0.81494147       0.39122464       1.27269287
H        3.67427895      23.34488456     -16.68679348       0.01016576      -0.12103729      -0.14804356       0.50181200       0.12942331      -0.43558978
O        8.08044402      13.37791742      -1.13899145      -1.05180913       0.99280953       0.27726093       0.49192338       0.71129090       2.36377476
H        8.33603387      12.56796985      -1.58746362      -0.10619697       0.23364150      -0.18233998       0.37124763      -1.11976023      -0.04654286
H        8.49347771      13.34464171      -0.19606929       0.21842993      -0.04770685       0.10326490      -0.81452162       0.17509735      -1.86672777
O       17.17570091       9.38543878      -3.69911070      -1.06559721      -0.47145389       1.08925343      -0.85427578       1.37153004      -0.90965759
H       17.43515706       8.91719757      -2.91934307      -0.02337098      -0.13382318      -0.10578528       0.82468403      -0.93640905       0.84592230
H       17.64603881       9.06021524      -4.47645485      -0.17048606      -0.06301446      -0.21944973       0.27839661      -0.33831634      -0.01809047
O       -5.41427022       2.02981327      16.32451197       0.64123728       0.24964550       0.91497648      -0.33715222      -0.94033383      -0.75597086
H       -4.91119872       2.71009405      15.86660504      -0.20089872       0.08560024      -0.11284874       0.11891616       0.51445417      -0.25597356
H       -5.39411383       2.24459545      17.24577064      -0.13124710      -0.09689533      -0.05845341       0.25656620       0.49690556       0.98833976
O      -10.51876342       9.42491222      15.64464079      -0.98492408       0.94254870       0.04406764       0.48578284       0.62818689       1.63098995
H      -10.91116741       9.22830881      14.80088296       0.11437272       0.09883119      -0.15617605       0.03419555       0.07202835      -0.97263769
H       -9.77178781      10.06333147      -2.40321328       0.24119499      -0.06746941      -0.01164732      -0.63351660      -0.29212193      -0.38038941
O        7.42675481       6.19162201       1.14159945      -0.79731925       0.45010799       0.44937910      -0.27435970      -0.21460046       0.23298446
H        7.03605674       5.29530532       1.31751538       0.01594512       0.12435601       0.19004700       0.23394635       1.13099694      -0.04574601
H        6.81683970       6.95228021       1.34698049      -0.03058895       0.15432243       0.06508224       0.30144240      -1.16216678      -0.00188326
O       23.83622279      -1.31749191     -16.26653572      -0.97207929      -0.00500392       0.27073920      -0.30887295      -1.71720158      -1.27431995
H       23.64842369      -1.08119624     -15.35637465       0.03564767       0.01390424      -0.06056987       0.16876959       0.19310212       0.62688338
H       23.34765331      -2.17309521     -16.41604253      -0.27913422       0.15502287      -0.17638582       0.26016532       1.09561527       0.07637375
O       22.61945249       3.01712181       7.60104719       0.71115987      -0.90538812       0.59021131      -1.09020926      -0.47457028       1.59352693
H       23.51749587       3.31005603       7.78420867       0.19560940      -0.16105415       0.10296264       0.71136647       0.37804864      -0.04367681
H       22.21266927       2.81293927       8.50539139      -0.32393255       0.19424425       0.03711834       0.56521992       0.28834945      -1.18109694
O        6.92659892      20.06999580     -15.48813233      -0.74933505       0.05478059       0.01876006      -0.41738028       1.00786139      -0.34855855
H        6.77487965      21.00517831     -15.16515608       0.21264585      -0.09149462       0.21666217       0.06344602      -0.65254209      -0.46732788
H        7.54730089      19.76087751     -14.83280652      -0.19857645       0.24866580       0.12407392       0.92281711      -0.53594460       0.81348994
O        9.88180039      16.83603669      14.95259555      -1.97469530       0.66924784       1.39153188       0.16421100      -1.81605914      -1.14936721
H        9.56810163      17.70855453      14.84842261      -0.05449447       0.15758909       0.13303997      -0.58853929       1.82618458      -0.35220552
H       10.33468394      16.76549777      15.78638029       0.19620688      -0.23926367      -0.09385170       0.36415150      -0.15605742       1.34638853
O        8.83719222      -5.46522141      -0.02554619      -0.24630449       0.14590057       0.32384846      -0.77467279      -0.32080604      -0.18083949
H        8.45392571      -4.65156237       0.38909459       0.09425027       0.32539533      -0.47956783       0.48312992      -0.34274207       0.17332294
H        8.12191048      -6.11709168       0.14720322       0.06355630      -0.02192829       0.02885013       0.43884561       0.27057131       0.01684425
O      -12.01785420      24.00107933      14.33777919      -0.81173197       0.15718628       0.12166499      -0.19722096      -0.87996553       0.81719075
H      -12.14438571      24.60068822      13.59164348       0.16990544       0.21460782      -0.07821357      -0.34305602       0.31343510      -0.44782107
H      -12.79331953      23.39200587      14.47773630      -0.01302549      -0.00104294       0.03122804       0.43931447       0.67449515      -0.54526941
O       25.26929789       6.26902588      -2.73850094      -1.16869707      -0.62464836       0.26022775       1.60432257       0.49738063       1.39547482
H       24.42179701       6.41079241      -3.13348739      -0.17576750       0.10921871       0.03575010      -1.28876874       0.65857293      -0.43033952
H       25.47390090       7.01526375      -2.07670383      -0.12638890      -0.07973780      -0.10535453      -0.66508778      -1.17533292      -1.30629561
O       19.87199115      -2.42385366       7.25377622      -0.29268619       0.23509439       0.36125332      -0.00321873       0.37387326      -0.02039478
H       20.70695765      -1.89922024       7.30134797      -0.02777258       0.37807500      -0.04227031      -0.86837808      -0.51110259       0.38980682
H       19.50629746      -2.55831427       8.16840981      -0.10012953      -0.08501775      -0.04286130       0.93719644       0.00208210      -0.33436045
O       62.12853090     -19.73923295      28.30802336      -0.84296762       0.25951101       0.34215062       0.30732360      -0.25936547       1.41052744
H       61.47921335     -19.58753871      29.02180643      -0.08471865      -0.09651621      -0.06111721       0.13009296       0.18483067      -0.22942868
H       61.58662423     -19.83106640      27.53783461       0.04072984       0.02688667       0.09849553      -0.61575435       0.15429435      -1.34131558
O       39.56411744     -14.66241563      10.20998646      -0.44390335      -1.03675843       0.13613345       1.04863201      -0.21340883      -1.42689214
H       40.24443365       3.59622069      -5.85654797       0.04555229      -0.25897817       0.07825920      -0.16576857       0.61554764       0.12955527
H       39.88442536     -14.35264480       9.31535801      -0.03003645      -0.29386519       0.35446656      -0.75397390      -0.12139601       1.15626198
O      -12.43009756      23.83867985     -15.00098120      -0.00530104       0.40541795       0.12372341       0.40208322       1.78196611      -1.43343675
H      -11.79626063      24.59557698     -15.06656887       0.03183298      -0.01193715      -0.10131107      -0.44299574      -0.85690817       0.01297199
H      -12.08991392       4.31524431       1.94406475      -0.00567198       0.20006836      -0.01817313       0.43838008      -0.83250445       1.00617030
O        1.09351449      15.00120734       0.13922251      -1.07992026      -0.10365873       0.67522880       2.59986432      -0.34432338       0.65886876
H        1.53903599      14.51379087       0.88680115      -0.10098042      -0.06417008      -0.09703091      -0.69215458       0.67686779      -0.87129824
H        0.15577446      14.89620899       0.19669277      -0.09979914       0.10378549       0.11620638      -1.69899827      -0.45604368       0.13822506
O        4.92421942       4.77564499      12.87480688      -0.29462061      -1.13023036       0.30644604      -1.22043629      -0.00701072      -0.02793764
H        4.01578787       4.40478878      12.70156231       0.01809301      -0.02313819      -0.04975787       0.87045232       0.37446133       0.09604466
H        5.51650460       4.30063198      12.28392059       0.12729274       0.24176594      -0.23838297       0.24471056      -0.45571568      -0.17093298
O       33.72067004      -9.68128718       4.85907422       0.28708147      -1.57783221       0.70934500       0.63623505      -0.11710244       0.06797728
H       34.18838504      -9.70322137       5.73518954      -0.05012477       0.00209134       0.09701346      -0.49948663       0.14491343      -0.78620633
H       32.80753407      -9.48177888       5.06845408       0.22121100       0.20661912      -0.02458497      -0.51799807       0.27251641       0.31143372
O       25.45829424     -17.56762304     -16.84707403      -0.01486633       0.47919643       1.14574860      -1.22562558      -0.35957293       0.36649620
H       25.37225742     -17.42401442     -17.82074798      -0.18636150      -0.07758038      -0.07754259      -0.21481382      -0.15414394       0.52621047
H       24.63669634     -18.09729690     -16.55536736       0.27077202      -0.05805815       0.07130025       1.43955212       0.89268426      -0.51989261
O       40.86948561      -1.90892999      14.50398060       1.61542034       1.02515119      -0.22932329      -0.23002859      -1.17630567       0.53517965
H       41.29289093      -2.34241628      15.32343113       0.17032716      -0.03958882      -0.17413715      -1.13131322       0.40618307      -1.45674802
H       40.07677299      -2.48630015      14.19730728       0.21287324      -0.02115853      -0.21199169       1.28612124       1.07369784       0.92105668
O       13.42628277      -6.10807087      -0.73632706       0.61482210      -0.99863597       0.46687737       0.13161909       0.42498419       0.26908194
H       13.37258187      -7.03241064      -1.01661284      -0.13626966       0.03118807      -0.14984001       0.33283205      -0.03335036       0.21659176
H       14.33787269      -5.97279268      -0.38419064      -0.09878813      -0.07912612      -0.14235296      -0.48291194      -0.46563340      -0.30833937
O       -6.79388942       2.25237049       3.83202713      -0.62355227      -0.44812641       0.14307842       0.34487753       0.19692872       0.85523618
H       -7.47311260       2.92944170       3.83501822       0.29036580       0.27498536       0.12301396      -0.76007118       1.00296830       0.35190622
H       -7.06076704       1.75674702       3.05608749       0.07478581       0.22949181       0.03491417       0.36354686      -0.94575465      -0.94377777
O       10.02503003       3.39749636      -2.51245637      -0.90313223       0.09053289       0.16646173       0.22003912       0.05554704       0.38646851
H        9.51292552       4.04257952      -3.01238904      -0.10697080      -0.03239452       0.02595261      -0.46468169       0.23394081      -0.39770552
H       10.08098378       2.58446617      -3.06317737      -0.00368515       0.04307874      -0.21234763      -0.23018418       0.26596048       0.28083572
O       25.37743399      15.00143607      -4.62649276       0.29766874      -0.31618285       0.92172449      -2.41535104      -1.69841038      -1.10905651
H       26.13114671      15.25232310      -4.09683617      -0.00383263       0.04578757       0.16130341       1.03455906       0.09999069       0.66093908
H       24.96593803      14.11290461      -4.37216793      -0.31315928       0.01390111       0.02969618       0.74316644       1.26389963      -0.20921577
O        1.37651433      19.60108579     -23.56737803       0.26815216      -0.38838069       0.43459321       0.34453050       0.68701923       0.26594408
H        2.02854691      19.60949588     -22.83640812      -0.16895079      -0.02351828      -0.11637075       0.06732479       0.18982068       0.24689844
H        1.02593115      18.71291024     -23.50624228      -0.12110538       0.07122426      -0.02157971      -0.62878862      -0.81218348       0.22280898
O        2.85678498      -3.20086157      -6.26742266       0.65981812      -0.97407632      -0.53582868       1.40044766      -0.43659167      -3.34256795
H        3.25431492      -3.25143472      -5.41511012       0.02744313      -0.01242984       0.32855773       0.75244467       0.09973727       1.40403210
H        3.63352997      -3.39624005      -6.91212040       0.10548502      -0.16959778      -0.07810673      -1.84327552       0.33829896       1.48068127
O       22.15823797      15.26455514       5.23014647      -0.02189031      -1.13583896      -0.40652193      -1.19956374       0.20108318       1.04548258
H       21.45930161      15.15653481       5.95947210       0.22589940      -0.12192877       0.20586614       1.37031088      -0.37331599      -1.00684745
H       22.10192060      14.46484370       4.69236347       0.08736525      -0.17664993       0.24987341      -0.31281198      -0.21234812      -0.08505197
O       14.56154141       9.19836216      26.19691843      -0.73986422       1.57812841       0.15474968      -0.42616435      -0.59011648       1.25046230
H       14.96722641       8.66750340      26.94979615      -0.12518582      -0.08206186       0.20469839      -0.42692412       0.62245604      -0.80928305
H       13.69534805       9.51767977      26.54180634       0.19302175       0.02646842       0.22844465       0.64514874      -0.26534197      -0.21783778
O       33.72155613      13.93277585      -4.79879715       0.02515021      -0.03635452       0.73853631      -0.96433678      -1.97165452      -1.70322859
H       33.34416459      14.07633231      -3.95178985      -0.21554011       0.01247614      -0.21797688      -0.94375363       0.55964021       1.84175875
H       34.38378182      14.59248704      -4.87292437      -0.01487176      -0.09703392      -0.20840821       1.46478688       1.27386287       0.03443422
O       18.31254658     -22.54083975      10.84040674       0.35684127       1.28855785       0.81341612      -1.21941635      -0.74164874       1.50807302
H       45.28928453     -35.90672505      14.83832384      -0.16315882      -0.11415953       0.13115146       0.08424262      -0.00693883      -1.13604656
H       19.16597976     -22.15087592      10.71657249       0.04203573       0.13684168       0.05312355       1.16534133       0.66939640      -0.23345387
O       -6.54669629       6.26941864       3.69052237      -0.71621262      -0.41280690       0.77614892      -0.44131511       0.60973216       0.09280533
H       -7.30260560       5.65186986       3.51298480       0.14667743       0.03206286       0.00002181       0.72155937       0.07741913      -0.02943224
H       -5.69929053       5.78516046       3.58348396      -0.13329976       0.11014000      -0.28264152      -0.69892618      -0.54809513      -0.01471043
O       -1.04783062      16.96280835       1.54631618      -0.94698861      -0.20661592      -0.98633542      -1.89624980      -1.60223907       0.25863667
H       -1.49340977      16.24183154       1.04315566      -0.34800073       0.04627475      -0.19967234       0.45434581       0.14509100       0.18001655
H       -0.60855888      17.45039559       0.87399052      -0.02429227       0.05367639       0.35166020       0.87943682       1.01727237      -1.15525186
O        8.43634202       0.39157913      -5.69845734       0.16697158      -0.03880476       0.09677250       0.31210355      -0.78941039      -0.47953928
H        7.58312469      -0.08547307      -5.64809560      -0.13430323       0.16496015      -0.01473957      -0.03868484      -0.01194107       0.13636806
H        8.84579041       0.05808949      -6.53837987      -0.11594214      -0.17932926      -0.06766971      -0.20403644       0.60625275       0.49995313
O       23.03487443       5.16478449       3.63418551       0.36158623      -1.44473473      -0.20965066       0.36813945      -0.74572979       1.82024978
H       22.85371499       5.54065432       2.78271744       0.11656723       0.22716377       0.40225723       0.07377633       0.24531033      -1.34584751
H       23.79407377       4.55556417       3.56144030      -0.04046749       0.03653085       0.19393880      -0.30743219       0.43009112      -0.14161370
O       -5.60504009      13.97510572       3.95667363      -0.15122714      -0.49683746       0.71092207       0.43916913      -0.97011656       0.34629519
H       -5.71886687      14.08384853       2.99658462       0.05527868       0.06225590       0.07011468       0.64298332       0.24611358      -0.26489882
H       -4.77295382      14.39871632       4.25638022      -0.15351436       0.01060086      -0.15644233      -0.68400605       0.27949201      -0.63591711
O       20.66459711       9.73584985       5.51172665       0.64938098       0.38058903      -1.31809428      -1.22389123       1.67197838       0.56913918
H       19.89989560      10.36030584       5.74353680      -0.16959389      -0.09074038      -0.11922147       0.91387928      -1.00003350      -0.70175961
H       21.22700230       9.89983630       6.30219504       0.15355017      -0.12244492      -0.01876988       0.29846255      -0.48223090       0.06042257
O       32.79093781     -15.40740548       8.94858259       0.31194496      -0.46709072      -0.93967543      -0.61099366      -2.13291241       0.61447537
H       32.62258833     -14.66270434       8.38981210      -0.00589638       0.26501740       0.03958809      -0.04196344       1.10486925      -1.05469025
H       32.03230134     -16.02451873       8.77715755      -0.17063764      -0.04541642      -0.00601817       0.65359215       0.69509728      -0.00976315
O       28.98938152      -5.34105074      11.65243210      -1.01619154       0.53400270       0.84771400       0.88172592       0.96686632       0.35651732
H       29.42196242      -4.80276946      10.95827496       0.12595658      -0.04243228      -0.10562716       0.41001611       0.52421219       0.03330903
H       28.40337620      -5.84281832      11.11448371       0.09973023      -0.43852675      -0.08755799      -1.37051543      -1.21033197      -0.47835637
O      -10.94595554      35.36766995     -21.91596209       0.15786095       1.40229916       0.43588773      -0.30841827      -1.05038152       0.03174393
H      -11.77764220      34.87746555     -21.68594320      -0.08715105       0.10546761      -0.07698602       0.49274911       0.46582295      -0.55261186
H      -11.04760469      35.94405187     -22.71168388       0.14398577       0.34121828      -0.31753163      -0.25975845       0.11467780       0.34997796
O       15.81500144       6.00103871       4.11360164       1.44754216       0.30468431       0.67749385       0.33626273       0.02449699      -0.20659172
H       15.14405200       6.71250906       4.15683440      -0.36113421      -0.41803473       0.15149361      -0.51293524      -0.33881485       0.18552894
H       15.71789303       5.62009616       3.21784587       0.24439495       0.06667069      -0.01081487      -0.03438657      -0.28282995       0.35915231
O       27.49303899       4.15511475     -17.66934053      -0.00605993       0.37974229      -0.57720521      -0.37086647       0.00513054      -2.34210521
H       27.90173397       3.27703512     -17.75974676       0.05160244      -0.04409345      -0.16900198       0.00466056      -0.04092589       0.35495962
H       27.54100877       4.46151268     -16.79076459       0.29456958       0.23523993      -0.09587414       0.41729606       0.42228912       2.12415920
O       -5.07369886      11.25916746      13.17928068      -0.54894505       0.35259205       0.08566349      -1.29978484       2.04320401      -2.80202744
H       -5.85083270      11.90431567      13.26717387      -0.13205290       0.07460408      -0.41716500       1.29349259      -0.62979630      -0.08276468
H       -4.97809785      10.86243086      14.00498874       0.25540661       0.01771197      -0.08904931       0.14596389      -1.39818640       2.77679910
O       12.62778988       3.71036693       1.26711573      -0.27463375       1.44721654       0.03046950      -0.34753468       3.43416366      -0.02476372
H       12.44880418       2.80727442       1.24214673      -0.03419638       0.07307736       0.16612032      -0.32455788      -2.72442297      -0.23246675
H       11.94199940       4.15457298       0.67034925       0.18921208       0.11004182      -0.09776562       1.28210354      -0.65745999       0.41880052
O        2.13207865       3.83894966      -5.59082685      -0.25021254       0.41961039      -0.26864682       0.33157811      -0.12940378       0.09289568
H        1.95281211       3.30687432      -4.77716058       0.26132962       0.10537935       0.02901031       0.30640885      -0.01753030      -0.34167040
H        1.88173166       4.74016944      -5.36985731      -0.30376746      -0.09490850       0.11973564      -0.25643150       0.62266072       0.10672763
O       40.67336696       0.37853648      -1.86103826      -0.09106858       0.47959871      -1.79398836      -1.04452920      -0.65012263      -0.85320705
H       40.55870022      -0.35843278      -2.56113837       0.04468082       0.15731370       0.05656301      -0.00045462       0.95880432       1.22806084
H       39.83193706       0.92867714      -1.82775581      -0.05707576      -0.18959972       0.10052443       1.25490826      -0.82544620      -0.03561227
O       10.22720308      -5.90696085      -6.96606626       0.23824820       0.44350466      -0.30238924      -0.45826683      -0.11216850      -2.58679845
H       10.69006286      -5.08657669      -6.75998977      -0.07192546       0.03075592       0.06761511       0.14642831       0.53697988       0.60491606
H       10.22889775      -5.83197622      -7.97466840       0.14718107      -0.28552290       0.11448563      -0.17805515      -0.38760210       1.46442897
O       -7.32367352       6.19015857     -11.62948990      -0.22413228       0.56288332      -0.15452246      -0.36552923       0.44459223       0.84416878
H       -8.06099937       6.79738416     -11.40137228      -0.18931547      -0.04572952       0.04040575       0.05713914      -0.27073253       0.08091643
H       -7.10428210       6.37250277     -12.54383592      -0.09421003      -0.00325671       0.07902209       0.36428500      -0.20519947      -1.01666990
O        7.23593421      14.81229329     -12.00260890      -0.30919953      -0.53789716       1.00657732      -1.55926667       0.63629274       1.72512609
H        6.55104604      14.08992239     -12.02401118       0.23929687       0.00917474      -0.03639964       0.97229348       0.78033616      -0.09774720
H        6.90976552      15.47234264     -11.28737998      -0.23391833       0.07452129       0.03107450       0.51684945      -1.25028943      -1.73759320
O        0.71110148      -2.29431263      10.09825551      -0.37058649       0.22187572       0.07085272      -0.09243409       0.27528666      -0.29331363
H        0.10342951      -3.00027290       9.88698219      -0.04428551      -0.16806203       0.20144865      -0.95402628      -0.39535356      -0.29768483
H        1.41539513      -2.80614007      10.49632178       0.26754738       0.18024388      -0.32952853       0.89046333       0.17128481       0.83484686
O        0.54461088      15.45663156       3.60044750      -0.61369408      -0.68270202      -0.83877195       0.68522815      -0.44283612       0.02751169
H        1.42130244      15.01895404       3.38870966      -0.36774053      -0.10872572       0.10238948      -1.08618441       0.30209017       0.49423987
H        0.39147813      15.52865569       4.56826241      -0.06504939       0.02487770      -0.35440839       0.46655690      -0.10871169      -0.41860017
O       -0.36643323      -2.27004878       6.68795030       0.29164782       0.01843833       2.11792822      -0.78399912       1.57535023       1.49690502
H       -0.45462933      -1.55384125       7.41572554       0.07138161      -0.05985854      -0.28227947       0.02647222      -0.57906000      -1.37340708
H        0.18342022      -2.89163881       7.15518619       0.18871154       0.21484514       0.14560356       0.64492792      -0.99216817      -0.20679456
O      -14.31466263      27.25659280      -4.42390189      -0.93277682       0.65422348      -0.77084018      -0.24473502       0.78357406       0.89456639
H      -14.01264428      26.87970825      -3.55499868      -0.26390692      -0.32901991       0.02081271       0.16310512       0.12615789      -0.51387582
H      -14.79730197      28.06039353     -22.05124001       0.23078891       0.16151236      -0.18945602      -0.30875321      -0.67342295      -0.32463081
O       15.57623146      -1.29656379      10.50224756      -0.78823420       0.81179281       0.18586781      -0.30614952      -0.11010903       0.70523308
H       16.29338224      -0.74473415      10.13321327       0.13087664      -0.13116553       0.03610000      -0.19239817      -0.20663449      -0.05455079
H       15.82053316      -1.45084939      11.46569130       0.00840827       0.18908733      -0.12455104       0.10345125       0.15266631      -0.97471477
O       19.27443983     -14.83158134      16.54362503      -0.37261094       0.42301252       0.65578475      -0.12209814       2.02465122       1.01424138
H       19.15130005     -15.27050404      17.40810268       0.13713644       0.28536182       0.08554806       0.07923712      -0.70118664       0.25465498
H       19.48481005     -15.47811060      15.90806112      -0.23872979       0.22909035       0.00902242       0.67401046      -1.58648609      -1.55314670
O       23.31336283      -5.54405748      17.00849749       1.36443500      -0.74789043      -0.04288984      -0.47419295      -0.33512434      -0.61333034
H       22.45481992      -6.01607361      16.84309635       0.00488902      -0.06070634      -0.32009572       0.83122530      -0.04538681       0.21841839
H       24.04442155      -6.19135386      16.88589178      -0.01065826       0.13997558       0.19203812      -0.37092531       0.24635859       0.42608053
O       10.13320967       1.81609906      -0.17555753      -0.64818649      -0.55202928      -0.30329931      -0.41657702       1.17421160       0.54660923
H        9.88444755       2.36542166       0.60844138       0.25357339       0.03787450      -0.17913259       0.14469666      -0.73279889      -0.20959070
H        9.91252146       2.44672951      -0.89139555      -0.07792070      -0.17467720       0.20017023       0.15218269      -0.26178246      -0.31612471
O       25.97842947      -5.20562840       1.48366746       0.23497841       1.46866731      -0.03483376       0.94406290      -2.10805979       0.11959653
H       25.84906675      -4.46199360       0.92931235      -0.14276111      -0.00837916      -0.19642312      -0.47198859       1.44048666      -0.55653563
H       25.50799798      -5.08560607       2.30415568       0.11356044       0.31260746      -0.02263224      -0.30707841       0.73161459       0.48597264