72
Lattice="15.0 0.0 0.0 0.0 15.0 0.0 0.0 0.0 15.0" Properties=species:S:1:pos:R:3:momenta:R:3:forces:R:3 energy=-82643.30120515723 free_energy=-82643.30120515723 stress="0.003733789307813144 0.0006535962114188344 -0.000623978760373445 0.0006535962114188344 0.006640850982604334 0.00459992647443905 -0.000623978760373445 0.00459992647443905 0.01036286779968213" pbc="T T T"
C       27.85320854       0.90468469      36.67652205       0.21208199       0.57336317       0.04276504      -0.58784299       1.79833898       0.51916845
C       28.99570994       1.62060435      37.06981170      -1.20940083      -0.25232359      -0.61295231       3.12302617      -3.67121926      -6.13678111
C       26.76461885       1.24350522      37.65990078       0.10968522       1.96186398       0.91793413       2.40611290      -2.23379377      -3.50868771
N       27.70109479       0.21119212      35.44551192       0.26802403      -1.89894860      -1.01372212       5.30138047       2.96077014       2.87133007
C       29.12470364       2.19790791      38.23587774       1.02115478       0.89926534      -0.69488327       2.17554285       2.04453467       6.11172132
N       30.45322137       1.38789163      36.09723417      -1.49849883      -0.13489617      -1.21970332      -1.64366197       1.77314496      -2.60629457
C       28.12531140       2.22694906      39.25609311       1.20629543       0.31974728       0.94626615       0.65230787       0.54234555       0.78359541
N       30.28139474       2.73092039      38.76694568      -1.61119809       0.60665927      -1.36309906       2.15269820       1.56961146      -0.11964819
C       26.85128335       1.86719222      38.96525753       1.06495126      -0.30051534      -0.33512172      -3.47117192      -0.24595305      -0.17184547
N       28.40071753       2.89978729      40.63566848      -0.79763081       0.34743173       0.39501724      -1.59702546      -0.91578050      -1.98507131
N       25.58221833       2.17822555      39.61491650       0.50671666       0.61054294      -0.28477533       0.44887268      -2.31267091      -1.06577143
N       25.62283321       0.51231993      37.26908499       0.19007055       0.11827001      -0.04554823      -2.49570300       3.86086098      -4.13868999
O       31.21814280       2.33243662      36.22828716       1.01333908       0.78470955      -3.49694760      -0.75139633      -1.81990192       0.34695951
O       30.55687957       0.65907922      34.98564098      -1.04866228       2.21864432      -1.42552563      -1.16153370       1.61979975       4.69620542
O       29.33266501       2.61220025      41.36518530      -2.02657410       0.58740574       0.96601518      -0.45923083       0.24208266      -0.44062915
O       27.48636617       3.64903171      40.87608299      -2.09381549      -2.89897159       1.49732377       0.40789577       0.61217303       1.26192153
O       25.10824361       0.63240535      36.06548202       0.78659899       0.19302115      -2.86801747       2.18074355      -0.95243357       2.42167135
O       24.95107908       0.13756880      38.14349311       2.39479376       1.21226702      -1.31768182      -2.71801313      -3.11116513       2.89880969
H       28.47716751      -0.26802971      34.94813626       0.30487819       0.03911835       0.21096702      -0.58381892       1.04605045       1.09287905
H       26.86625848      -0.16506487      35.45133132       0.32762404       0.19743634       0.14968407      -5.07239540      -2.62606590      -1.03436383
H       30.92366878       3.27736285      38.18688737       0.03871574       0.10006135      -0.18528887      -0.60151875      -1.00180840      -0.07762715
H       30.38111002       3.03848601      39.75679559      -0.04944627       0.21824669      -0.23402650      -0.68029390      -0.81601068      -1.59234331
H       24.83700605       1.46113500      39.37097265       0.40760233       0.53163729      -0.04251775       1.66331443       1.53006825       0.41063022
H       25.42392458       2.47629303      40.57907401      -0.00088188      -0.05971585       0.24547563       1.30678142       0.08659051      -0.67063946
C       -4.21521743      -9.68606805       7.42945948       0.24093502       0.80184044       0.69870368       2.26688964       0.55233141       3.16276404
C       -5.30082389     -10.16587469       8.07169588       0.10926866       0.13669199       0.90381355      -6.31699286      -0.72188711      -0.33045819
C       -3.93393201     -10.24910086       6.13906670      -0.01723283      -0.16628624       0.60941351       0.20616749       0.56867552      -1.26602224
N       -3.31548147      -8.93495178       8.27893243      -2.35998213      -1.20982678       2.16531497      -0.73924651       0.54337194      -1.45258063
C       -6.55233114     -10.79959887       7.29556855      -1.95319278       0.92433763       0.83159417       5.06681036      -0.47322920       2.03339513
N       -5.66709686      -9.75074368       9.50475734       2.53495222       0.09009780       1.45041568       1.87068034      -0.36102431      -2.00656669
C       -6.19640899     -11.13791424       5.90408127      -1.58330685      -0.68749629      -0.10783604      -0.96539350       1.73674000       1.89782881
N       -7.53562252     -11.14118593       8.16253234       0.90394210      -1.20214866       1.35943569      -1.62784891      -0.63525328      -2.75092270
C       -4.98830361     -10.60330077       5.21438673       0.41939782      -0.11544005      -1.10843011      -0.74491099       0.25084951       4.00258787
N       -7.23441748     -11.86164110       5.19228175       0.23508829       0.38914232       0.08863170       1.48970443      -0.14399275       2.58676059
N       -4.98844208     -10.38827394       3.87109293       0.02447585       0.20053409       1.49238565       0.81543435      -4.87824539      -0.78620732
N       -2.55593244      -9.96368006       5.60480764       0.64440176      -2.39232261       0.75509287      -3.95413664       1.49424351      -0.14570858
O       -6.13795764     -10.70915542      10.16448479      -1.94850703      -2.75446928      -0.33306325       1.05166319       3.41707623       0.62429264
O       -5.34409836      -8.56839214       9.84853027       0.36606200       2.55292719      -0.36735600      -1.87071301      -3.40149405       0.74805206
O       -7.25167358     -11.81167754       4.01592183       0.83718538      -0.69234691      -0.47909077      -0.27869481       0.23438929      -3.91545170
O       -7.95339566     -12.59241707       5.83364097       0.25272341       1.64179439      -0.27791411      -1.01039994      -0.19452634       0.91099647
O       -2.09855956      -8.90170005       5.88722676       0.12298381      -1.80645164      -0.34300530       1.51387691       2.77753754       1.82585926
O       -2.07843148     -10.60755431       4.74779307      -0.50010432      -0.45456515      -1.90640309       0.92683100      -3.49861190      -2.27694468
H       -2.69894614      -8.40681206       7.60521717       0.34020877       0.34607298      -0.34614981      -0.70050729      -0.45163119       1.93515836
H       -3.72868663      -8.49565387       9.23830478       0.83949954       0.41892348       0.13299031       1.39015417      -1.35253539      -3.96275992
H       -8.36840655     -11.66014805       7.92500494       0.18739529      -0.14483469      -0.79643578       0.33498994       0.14766196      -1.33857397
H       -7.41348679     -11.27807263       9.13008066      -0.72751662      -0.13316048       0.54319204       1.08076811       0.59189147       0.87104831
H       -5.54531603     -11.29005408       3.53538332       0.34270385       0.21492720       0.24127274       1.03727820       2.99378240      -0.04319772
H       -4.00378933     -10.57032511       3.57786630       0.45462982       0.39941520      -0.64477674      -0.82862714       0.79706273      -0.22420888
C       -5.86541693      10.18693847     -45.43210209      -0.18621794       2.21175953      -1.00884428      -1.66142879      -3.36001362       1.23658258
C       -5.11451995      10.97115490     -44.63265080       2.39445347      -0.93038819      -0.74093277       1.99025794      -1.27374528       1.16485508
C       -7.25165813      10.59354876     -45.63788299      -2.91447665      -1.46041994      -0.94929087       2.45846618       2.86281387       0.92618741
N       -5.51383532       8.80983791     -45.81956240       1.64626726       1.89959163       0.49876787       1.80643860       3.22121448       1.89446961
C       -5.45847616      12.04864481     -43.90204166      -0.55193774       1.04341816       0.57878028       1.64589652       3.53758526       2.28689806
N       -3.66152610      10.77728047     -44.53563477       0.36415706      -1.08333447       1.30159310       0.88943347       2.76551406      -5.54003074
C       -6.77418396      12.31068726     -43.68525960       0.50590561      -2.20809598       0.02191208      -3.44095619       0.57912578      -3.18576604
N       -4.38762727      13.00518362     -43.45309948       0.43865038       0.27251829       2.09404604      -0.97995629      -5.61265812      -3.62495895
C       -7.68236006      11.86903467     -44.82973763      -0.42780779      -0.75086504       2.40534390      -1.25524290      -3.41925251       0.15502908
N       -7.23924661      13.62240358     -43.10685444       0.32278152      -2.01819712       0.28330435       0.30553115       0.50898584      -2.64512126
N       -9.02098275      12.18379252     -45.05899661       0.05449089       0.43016485       1.68260850       3.33838057      -2.09171521      -0.74219439
N       -7.85032243      10.23279090     -46.89078070      -0.65295048       1.05004040      -2.15852128      -0.76581625      -4.74109243      -0.33721360
O       -3.06780210       9.86831943     -44.11055267      -0.15579200       0.90976865      -0.21886754       0.41384202      -2.29840056       2.02761553
O       -3.10812892      11.64069084     -45.30536546       0.64396307      -0.01142121      -1.43808252      -0.45714914      -1.15404490       1.50269878
O       -8.39409995      13.62292214     -42.72635779      -1.55972088       1.07863966      -2.06516938       0.86382479       0.48513633       0.50432984
O       -6.54331199      14.63620403     -43.38987245      -2.51098297       0.86764121       1.51751024      -1.67680959      -1.56762978       1.55477247
O       -8.74454216      10.94826651     -47.29232191       1.72846388      -0.98240673       0.25309398      -0.24391930       0.10753761      -0.82529999
O       -7.63921864       9.03324979     -47.46150449       3.60526602      -3.00775358       2.40796446      -0.07705185       5.06830161       2.13303412
H       -5.76179126       9.04700378     -46.71636656      -0.38561233      -0.09038098      -0.31984947      -0.85412276      -1.88145712      -3.70065655
H       -4.49184380       8.58678206     -45.82961995      -0.85561671      -0.30566429       0.52113738      -1.23016741       0.71541661       0.43457641
H       -4.97576884      13.70542558     -43.15555314      -0.77355667       0.91081323       0.33153957      -0.53508322       2.97094359       0.33134824
H       -4.04042329      13.03518617     -44.48219899       0.23286351       0.15566786      -0.33380849       0.33696241       1.53488713       2.65887125
H       -9.26838893      13.08326377     -44.75241894       0.10039380       0.35740801       0.76044306      -1.05335602       0.91743829       0.18717875
H       -9.34979497      11.62894346     -45.92615002      -0.34541883      -0.67018025      -0.21811100       0.17317952       2.15235820       1.63715458
