24
Lattice="13.9116 0.0 0.0 0.0 13.9116 0.0 0.0 0.0 13.9116" Properties=species:S:1:pos:R:3:momenta:R:3:forces:R:3 energy=-157.77185427882907 free_energy=-157.77185427882907 stress="1.218214500158218e-07 -6.425038053437981e-08 5.5260682717742333e-08 -6.425038053437981e-08 -1.1048710555687207e-08 -1.6716062328463534e-08 5.5260682717742333e-08 -1.6716062328463534e-08 6.19999498048124e-08" pbc="F F F"
C        6.25528767       1.94506102      -0.91622150       0.48547244      -0.38124181      -0.98486960      -1.90139264      -0.45409435       0.66272690
C        4.88225310       1.63645948      -1.31796556      -0.20726186       0.32144091       0.10241575       0.07260732      -0.44141551      -0.10437999
C        6.92441033       0.86871023      -0.23325690      -0.62175928       0.05703840       0.09740263      -1.61958571      -0.71536970       0.41498162
N        6.61578312       3.23139803      -0.77212394       0.72336375      -0.98572318      -0.04159198       3.48432717       1.11345789       0.27165660
C        4.07964270       0.57248103      -0.75806084       0.94985973       0.19753365       0.16153710       0.70235211       0.88018804      -0.15034722
N        4.31077217       2.48143218      -2.43305953      -0.00504559      -0.53456707       0.00710701       0.45259630      -0.95614738       1.18836559
C        4.75703427      -0.28414459       0.18020527      -0.14418601       0.43869480       0.19690877      -0.86235510       0.81450481      -0.12463941
N        2.74480174       0.50003895      -1.04333170      -0.45291873       0.15855908       0.08029822       1.92178746      -0.47100766       0.43942991
C        6.17844668      -0.19920315       0.45988188      -0.38042295       0.15749529       0.93354857      -0.85221310       0.36473624      -1.26943355
N        3.80008930      -1.10587815       0.99969999      -0.10749004      -0.22259250       0.37221921       2.05813445      -0.57736573       1.27109582
N        6.78834799      -1.18694685       1.15115557      -0.10112387      -0.20448267      -0.57015316       1.00694400      -0.18569040      -0.16405077
N        8.33508100       0.89987973      -0.22329730       0.00012686       0.03731679      -0.35824747      -0.15690217      -1.62292477       0.74744438
O        5.08180290       3.26427804      -2.96303387       0.19817097      -0.16515272       0.69818117       1.55741136       1.29213627      -0.66006399
O        3.15286054       2.38416865      -2.84711167       0.43077112       0.17260161      -0.81265535      -1.32398288      -0.49233219      -0.07137537
O        2.59196205      -1.25452866       0.78582147       0.79012472       0.18116471      -0.02494024      -0.73550014       0.17818930      -0.71317902
O        4.30451157      -1.68136579       2.00775252      -0.27790891      -0.05218387       0.44574913       0.19508234       0.24488460      -0.49666439
O        9.00269144      -0.09481161       0.20058080       0.38199276      -0.15642291      -0.45536761       0.08506388       0.02066666       0.02842171
O        8.90231401       1.88416411      -0.66683978      -1.15549363       0.28048024       0.28825698       1.23597289       1.75762312      -0.78437816
H        7.67844741       3.39403727      -0.42639884       0.05782886       0.30757037      -0.06713294      -3.28390072      -0.25903010      -1.06707767
H        6.18167117       3.97831522      -1.35322212       0.02256443       0.34369298       0.07553005       0.35830072      -0.68794987       0.53029625
H        2.31938722      -0.34346233      -0.65844170      -0.18963443      -0.00322170      -0.15654870      -0.85422080       0.13494549      -0.15654870
H        2.46038495       1.04164041      -1.84986602      -0.05264872       0.12024596       0.07300737      -0.75044785      -0.01694691      -0.27065366
H        7.81542521      -1.16102401       1.12790153       0.03022151       0.16824368       0.25743036      -0.14566545       0.06928215       0.09995437
H        6.42098555      -2.12853427       1.17317450      -0.37460312      -0.23649004      -0.31808527      -0.64441343       0.00966001       0.37841876
