1296
Lattice="-21.470953169598552 11.248457590293713 5.683407246660222 0.0 23.30846810443735 13.571932448022228 0.0 0.0 -26.84831765139998" Properties=species:S:1:pos:R:3:momenta:R:3:forces:R:3 energy=-1487862.6831810146 free_energy=-1487862.6831810146 stress="0.003942403976022516 -0.00023554842471444883 -0.0008438769031773252 -0.00023554842471444883 0.003070759735427138 1.568479945111252e-05 -0.0008438769031773252 1.568479945111252e-05 0.000603199966947027" pbc="T T T"
C      -19.54475143      14.93423808      -0.80540847       0.67050179       0.96328973      -0.15036059      -0.24063852      -0.04450719       0.63814247
C      -19.51475781      13.73729500      -1.57335017      -0.08203741       0.76346313      -0.64411466       0.14870650      -1.11636495      -1.75362675
C      -19.50084997      14.80910483       0.63313595      -1.02585331      -0.96188720       0.45747109      -0.35195549      -1.10516430      -0.60422474
N      -19.58135615      16.13732082      -1.38407501      -0.98193959       0.13074717      -0.40836345       0.17934616      -1.16475179       1.16474713
C      -19.38819601      35.71067622      12.53713252       0.05854781       0.07289596       0.03002703       0.42276167       0.31366834       1.54956944
N      -19.59357663      13.81716703      -3.04439314      -0.09584140      -0.14156813       0.06811922      -0.88650859      -3.86799452       1.04472688
C      -19.41637700      35.59004524      13.98562187       0.44925450      -0.29546676      -0.81649476       0.35568988       1.42788191      -1.13523348
N      -19.16779530      34.62496176      11.83230175      -0.32152253       0.41766848       0.66157493      -0.71158000       1.44820622      -1.04146719
C      -19.45806653      13.45305957       1.24300808       0.56741677       0.58267415       0.34229120      -0.45189345       0.69917640       0.34267627
N      -19.30951476      34.29390347      14.56207420       1.20177888      -0.15354321       0.03382073       1.23165197      -1.00630009      -1.11714797
N      -19.54280418      13.33259761       2.57171711      -0.50931841       0.20473810      -0.46685674       0.71084499       1.68818214      -1.00658911
N      -19.59992727      16.00385627       1.46520154       0.51145613      -0.72250778       0.17523107       1.05151958       0.23186247      -0.07957135
O      -19.83299609      12.71726291      -3.69518177       0.85187654      -0.63823073      -0.02752582       0.45092940       2.86028162       0.98031372
O      -19.48701482      14.85990888      -3.59305808       0.88741772       0.05003972      -0.75599183       0.36896735       1.44965275      -1.25684939
O      -19.84023944      34.09735275     -11.21673304      -0.48107753       0.09703280      -0.07657845      -0.59390994       0.05468291       1.20683120
O      -18.67121518      33.37525236      13.98035593      -0.64487542      -0.26865390      -0.02945517      -0.65559881       1.06602192       0.84499256
O      -18.96603250      15.99906471       2.52172639       0.56227153      -0.07015300      -0.52797405      -0.64153046      -0.35703229      -0.19194380
O      -20.20550622      17.02902575       1.09670082       0.05793788       0.77363288       0.80460855       0.20187724      -1.19914717      -0.28150767
H      -19.84305397      16.88087529      -0.80107314      -0.10758201       0.30043430      -0.04414535      -0.11490430       1.07426761       0.74620747
H      -19.65864762      16.28844142      -2.35420703      -0.10035093       0.25839699       0.06477191       0.12069501      -0.16572700      -1.14695809
H      -19.01541911      33.75478736      12.24172108       0.04746970       0.07189768       0.19304117       0.33361614      -1.48714192       1.12827189
H      -19.38121241      34.62507120      10.85902169      -0.25068511      -0.11433654      -0.30173283       0.10435574       0.30980005      -0.71178502
H      -19.40074020      14.18099312       3.12702497       0.16002960       0.13362161       0.13185079      -0.08992156      -0.64861220      -0.11006203
H      -19.57254962      12.44496933     -23.84309744      -0.07186825       0.20521507      -0.12920276      -0.02036401      -0.60260250       0.40881314
C      -16.02168382      12.96989904       0.85146565      -0.65927402       0.03179187       0.55949758       0.39194792      -1.59543115       0.40711604
C      -15.90715301      14.20698799       1.53263099       1.07606638      -0.37584766       0.58976330      -0.04273102       0.48025706       1.04650458
C      -16.08158164      12.96094806      -0.58500200      -0.28385112      -0.73975956       1.17267431      -0.02414757       1.21436487      -1.40618753
N      -16.05050452      11.81697849       1.52673207       0.35614907      -0.46416444       0.90388430      -0.07376826       1.80556078       0.23165673
C      -16.04663439      15.49284823       0.86925602      -0.06619444      -0.40045338       0.35966965      -0.26188843      -0.90731371      -0.20754202
N      -15.79340901      14.14191069       2.97865744      -0.23237590       1.11318031      -0.09910515      -0.88184412      -1.57909943      -0.10270285
C      -16.25960214      15.39923749      -0.55314880       0.04467223      -0.09516006       0.62144330       0.85984560       0.28090016      -0.15296179
N      -15.96940046      16.64213666       1.52457110       0.39118497      -0.27434205      -0.57845162      -0.23871593       0.04059207      -0.74390017
C      -16.08438324      14.16533728      -1.34755050       0.60267618       0.36687760      -0.78518178      -0.39812857       2.62213784       0.32360668
N      -16.34523567      16.67965302      -1.19440129      -1.44840634       1.10297655      -0.14338649      -0.66332249      -0.24237118      -2.54627603
N      -15.99976825      14.30399403      -2.66964814      -0.50169240      -0.11908921       1.03993213       0.01729219      -1.99733383       1.12611252
N      -15.85583835      11.82453799      -1.38327951       0.21336016       0.04674558      -0.28492528       1.37116265      -1.46546230       1.59440638
O      -15.88756662      15.13624430       3.64616426      -1.16319012       0.63643484       0.49727899       0.36373514       2.56918994       0.52128991
O      -15.70206479      13.05488262       3.59263535      -0.21139401      -1.06303695       0.75912339       0.47119205       0.18523019      -0.57798559
O      -16.03564686      16.87488763      -2.41123123      -0.56587745       1.15506351       0.78377609       0.32309342      -0.86538769       1.24752023
O      -16.86952040      17.59046603      -0.60863456      -0.20262646      -0.41541141      -0.11967868      -0.36883711       1.06769645       1.06163257
O      -15.83696975      11.85053554      -2.59529964       0.57929933      -0.36510061      -0.65817740      -0.54023463       0.01673012      -0.84705193
O      -15.53266906      10.79607407      -0.78225213       0.22661599      -0.16030238      -0.03936934      -0.36500228      -0.66277668       0.07517765
H      -15.98662244      10.99132339       1.02638951      -0.13223789       0.10802001      -0.06625915       0.02355668      -1.63086705      -1.20362158
H      -15.96155646      11.79548922       2.55024432      -0.14876874      -0.19435550      -0.22712572      -0.16188892       0.28268927      -0.82394316
H      -16.30786748      17.53090401       1.07598042      -0.01849220      -0.09745921      -0.12297923       0.50815540      -1.41227391       0.71665085
H      -15.81172137      16.59479992       2.52563061       0.01619274      -0.14361052       0.17297323      -0.23598921       0.01842050      -0.22659697
H      -15.90398920      13.42536126      -3.21682944       0.28261779      -0.11456941      -0.01299888      -0.21437637       1.17259636       0.26495209
H      -16.06239765      15.22368612      -3.05779341       0.09497615      -0.23560463       0.27448284       0.16017674       0.21846336      -0.21454042
C      -12.34702013      10.25849372      -0.61499055      -1.78727709       0.35027715      -0.35432168       0.28507138       2.10264366      -1.66328292
C      -12.54596139       9.09279853      -1.37069954       0.36407095      -0.29755134       0.78245474       0.03195024      -1.12272145       0.32349792
C      -12.24237769      10.16183355       0.77811936       0.15551030       1.72393215       0.19693455       0.20563633      -0.07414275       0.99016982
N      -12.21789872      11.46956834      -1.23670234      -0.09354100       0.82463188      -0.76046193      -0.08456131      -0.12126254       2.03682429
C      -12.45473322      31.10951175      12.85496669      -1.09345670      -0.22141296      -0.64325437       0.16256357      -0.67358938      -3.31513730
N      -12.53736603       9.15389682      -2.82857830      -0.26741773       0.30282130       1.03375362       1.86917224      -0.17527241      -0.54091368
C      -12.33905649      30.99990791      14.24921136      -0.05022021       0.55895383      -0.30923520      -0.53075508       0.23503970       0.16690081
N      -12.35811863      30.03355289      12.01840499       0.14598303      -1.43186779      -0.59028400      -0.39654171       1.50863069       1.07527504
C      -12.27325854       8.91756552       1.46022957       0.10799149       0.36389856       0.46225686       0.12054518       0.10162376      -1.08903439
N      -12.54952727      29.68350600      14.85732440       0.18406796      -0.60934390      -1.11886708       0.87648112       1.56625950      -2.69416395
N      -12.20036279       8.92359121       2.75721920       0.61177393       0.05365992      -0.94351907      -0.73913124      -3.58800030       0.51934251
N      -12.17532579      11.38107081       1.60082570      -0.21002754      -0.20677249      -0.23024836      -0.34494828      -1.42629605      -1.95965307
O      -13.13509177       8.34120487      -3.54033558       0.75903719      -0.05738982      -0.89107805      -0.51567071       0.11374992       1.03338763
O      -11.72042268       9.92957161      -3.35900559       0.74356275      -0.58469923       1.16445150      -0.89487518       0.37541266       0.48887307
O      -12.69968411      29.67979012     -10.81393491       0.47158073       0.73176310       0.50251914      -0.69367016      -0.52857718       3.72796604
O      -12.56717401      28.65651240      14.18916511       0.07973121      -0.16778024       0.16095681       0.01852724      -0.16866169      -0.29433694
O      -11.62731070      11.43014165       2.65622483       0.87077030       0.92054557      -0.22802355       1.08563052      -0.44040390       1.89962566
O      -12.71717792      12.34940209       1.11988439      -0.32410200       0.36935832       0.74435303      -1.09199523       1.89515494      -0.57561015
H      -12.24737666      12.29411253      -0.59918590       0.20282103       0.00670695       0.07630986       0.06493985      -1.04090476      -1.41485204
H      -11.86152303      11.51562072      -2.17186993      -0.00916335      -0.20880418      -0.00034811      -0.38675861      -0.03733690      -0.11501783
H      -12.16312019      29.14522543      12.45222498      -0.11414701       0.08361780      -0.16550424      -0.37445849      -0.15122175      -0.36832066
H      -12.66564317      30.13785596      11.04649061       0.02882199      -0.01526340      -0.05183436       0.34571516      -0.37653854       0.82497969
H      -11.97941223       9.69108236       3.31045480      -0.12918623      -0.42514613       0.17063998       0.17730777       1.53660501       0.90932720
H      -12.35071826       8.00270353     -23.66964394       0.19081976      -0.03342819      -0.24458793       0.26281706       0.79678500       0.10509096
C       -8.71877425       7.63773176       0.71460996      -0.12960333       0.01897031      -0.00602582      -0.37924488       0.53261304       0.42178388
C       -9.07980016       8.87620111       1.38413397       0.68549386       0.64895763      -0.90745621       1.27915335       0.86869664      -0.31354806
C       -8.73529498       7.57678505      -0.70075288      -0.04381233       0.81770164       0.03625795       0.17611873       1.97430028      -1.48412203
N       -8.41118927       6.57893802       1.40296103      -0.54768282       0.60647072      -0.48764325       0.11570238      -1.73413043       0.50412088
C       -8.80954794      10.16522420       0.70728340       0.42464822       1.02533338      -0.75715860      -1.15386047      -0.97584930       2.79643886
N       -9.14975016       8.87526466       2.83652224      -0.09203429       0.78651486       1.09822057       0.22804857      -0.99933476      -2.72282940
C       -8.90640020      10.09481839      -0.69170548       0.04402743      -0.89840407       0.01679682      -0.19382675       1.56507273      -1.21090374
N       -8.66891011      11.29529705       1.41519624      -0.34630548      -0.04533977       0.17150127       0.02337875      -1.59242090      -3.09254306
C       -8.97744020       8.84949779      -1.41199399      -0.03131249       0.64904156      -1.06628519       0.64627383      -0.69105119       0.51326319
N       -8.91831289      11.38953633      -1.42877933       0.37959980       0.15349519      -1.03758486       0.36839225      -2.13899228      -0.67704792
N       -9.14053563       8.87940103      -2.70013734      -0.14020424      -0.52261245      -0.24006411      -0.25558153      -1.51729380      -0.20125969
N       -8.38544289       6.41713168      -1.48766478      -0.47826045      -0.69016446       0.24315902       0.03876480       0.43788007       1.97416996
O       -9.01595204       9.92104020       3.42005928       0.39940180      -0.93265647      -0.70083151       0.01102770       0.62940021       1.69971582
O       -9.41037237       7.80330053       3.35792104       0.22025046      -0.41115948      -0.31611560      -0.29597959      -0.05241513       1.22880935
O       -9.05594054      11.40362744      -2.66087876       0.23334714      -0.07419931      -0.50893742      -0.15070351       0.12236294       0.59642240
O       -8.73392595      12.41054599      -0.80538028      -0.83084779      -0.07302862       1.29974951      -0.04466937       0.87589451       0.25811329
O       -8.60251431       6.41582603      -2.68241685      -0.13330803       0.64809284       0.01170412       0.04074750      -0.47776435      -0.53403702
O       -7.87637561       5.43738047      -0.90348325      -0.20768110      -0.65601392       0.19250508      -0.28461439       0.27797642      -0.56443449
H       -8.01380975       5.78261906       0.90705179      -0.18643468      -0.41200234       0.10654340      -0.65496221       0.25856766       0.07461852
H       -8.74375771       6.44219527       2.35888019       0.18092338       0.02478126       0.03344691       0.42522100       0.31144435      -0.29775049
H       -8.57817696      12.09214270       0.83631662       0.52570756      -0.10916319      -0.07015147       0.12068996       1.03033981      -0.16741145
H       -8.55881364      11.34642695       2.37509859       0.12902706       0.06282870      -0.03118347      -0.02246935      -0.37600835       1.88914520
H       -9.06122672       8.02671182      -3.25965366      -0.01526983      -0.45979866       0.08612543      -0.02717433       0.37056051       0.40361091
H       -9.56162387       9.67605969      -3.10518814      -0.43162012      -0.13169357      -0.28088777       0.22850574       0.94503301      -0.46570588
C       -4.88603047       4.53427292       0.38158137       0.74950172       0.29129244       0.45513543      -1.09590361      -0.11011388       1.97935676
C       -4.83598567       3.25124687      -0.24409641       0.67953722       0.27710364       0.37117770       0.33710340       0.40206381       1.31854492
C       -5.39130017       4.59228831       1.76304531       0.18410966      -0.13008470       0.45006179       1.36462536      -0.42842114      -1.01269977
N       -4.63916212       5.62598247      -0.26512829      -0.32596550       0.05074583      -1.00757936       0.70874998       0.35715437      -0.81934149
C       -5.07760870      25.36602354      14.06729071       0.31462409      -1.35789754      -0.25661100      -0.22703335       1.67006477       1.99791794
N       -4.53555048       3.16443897      -1.57213073      -0.20369787      -0.03449706      -0.02795113       0.22470226       1.67486113      -3.35794111
C       -5.03481005      25.42217786      15.50613751      -0.86254163       0.79912325      -0.50629735       0.02874664       1.84931776       1.20613002
N       -5.33582583      24.27658210      13.48338806       0.82072211      -0.40961397      -0.34205711      -0.64613089      -2.27390434      -3.35060463
C       -5.19626933       3.41031756       2.57625033       0.17892636       0.11805704      -0.26784156      -0.01500019       0.03984068       1.13201050
N       -5.17790069      24.26036847      16.33540253       0.49207170       0.00816609      -0.17189863      -1.20770819       0.00447478      -2.86385682
N       -5.19523388       3.55719953       3.90690503      -0.78445318      -0.36095187      -0.52056651      -0.04575846      -0.29315462      -0.11447504
N       -5.68422561       5.86058986       2.37417617      -0.15939395      -0.29846735      -1.35518176       1.64768030       0.29662938      -0.95316626
O       -5.00229153       2.23557589      -2.27302022      -0.51295402      -0.23095187      -0.11352821       0.88584193       0.61533707       0.41101637
O       -3.87980674       4.11039131      -2.14211731      -0.85683279      -0.47963699       1.03424199      -1.21534139      -2.37671113       0.84036773
O       -4.95810864      24.21687021      -9.33597508       0.31176742       0.05333413      -0.22695404       0.91680327       0.97075894       2.22099271
O       -5.62725045      23.26630315      15.76187606       0.88509945       0.90139859      -0.47302108      -0.06696803      -1.01097890      -0.26301127
O       -6.28969086       5.84230728       3.43494366       0.02056421       0.81858055      -1.33908802      -0.13922314       0.84575664      -0.22338110
O       -5.25412893       6.93616385       1.83560380       0.19954177      -0.14603513       0.04882438      -1.22506753      -1.58976930       1.34959018
H       -4.56968579       6.49649147       0.23002342      -0.06969941       0.04981645       0.17387389      -0.46424464       0.17631920       0.04335145
H       -4.38162356       5.51643629      -1.23660437       0.02594051      -0.12018892       0.10086936       0.25291636       0.39392317       0.05078521
H       -5.46663525      23.46559525      14.07000920       0.06586680       0.06591919       0.08883772      -0.19352700      -0.33704511      -0.31679535
H       -5.45686929      24.29667669      12.43314596      -0.02764855       0.05061357      -0.00027620       0.50506485      -0.37948534       1.91333225
H       -5.35243566       4.52641311       4.24101014      -0.04754212      -0.19594730      -0.13964816       0.07757367      -1.43481857       0.18831263
H       -5.00192133       2.75837712     -22.29389941       0.13323120       0.06029604       0.14925519      -0.23938343       1.21131323      -1.13571329
C       -2.05072997       6.68026269       3.25173820       1.55998177       0.78034929      -0.55622792       0.34644624      -0.29935284      -1.88874312
C       -2.05275852       7.87506724       3.97279986       0.30815909      -1.54201366      -0.49741933      -1.22328585       1.06835937       2.40465888
C       -1.70744250       6.74590883       1.87896665       0.24263901      -0.39283267       0.37575964       0.14026651       0.72997760      -2.14176725
N       -2.33794200       5.50045285       3.72232444       0.46889109      -0.19184364       1.32120902      -0.51346750      -0.12076712       1.91471439
C       -1.70445231       9.15743864       3.44795419      -0.12840351      -0.07470006       0.58344684       1.25709334      -0.40866408      -1.54012087
N       -2.46931105       7.85732059       5.35976399      -1.59222995      -0.04690758       0.13939496       1.25455375      -1.65228706      -0.00522395
C       -1.50732046       9.21633075       1.98558216      -0.70128680      -0.68779220      -0.53873042      -0.41133202      -0.68505588      -0.02115887
N       -1.42577228      10.22929065       4.14856780       0.19686264       0.30086533       0.69050135      -0.16665960      -0.03780644      -0.09907099
C       -1.59413542       8.00207973       1.14612760       1.09924997      -0.10925021      -0.13008296      -0.66363505       1.17384316       1.47722224
N       -1.32190592      10.45918854       1.31032980      -0.26273725       0.56418121       0.32746740       0.55541968       1.85081757       2.42246440
N       -1.63469051       8.08069013      -0.17324804      -0.73290434       0.35756039       0.08539221      -0.42468362      -1.56348087       1.16418250
N       -1.41959578       5.57030683       1.11692443      -0.66807119      -1.20545051       0.11461769       0.65086745       1.51855846      -0.58143989
O       -2.22477051       8.83392520       6.05401493       0.36570376       0.66313260      -0.02931146      -0.58609533       0.53832695       0.19333057
O       -2.92166897       6.81217621       5.88935905       1.38918560      -0.87315573      -0.02844679       0.06700401       1.06562277      -0.89722592
O       -1.32753681      10.50323245       0.11347394       1.19653576       0.54471286      -0.83160361      -0.21379717      -0.35017162      -2.94653073
O       -1.07813950      11.56287466       1.90015541       0.20911645       0.28619442      -0.83800083      -0.18885678      -1.81541559       0.70836924
O       -1.16417534       5.71129908      -0.08617907      -0.95270473       0.30018880       0.93061931      -0.32935842      -0.88310899       0.56203735
O       -1.29210657       4.48412234       1.66699870      -0.59205598       0.00373779      -0.41980282      -0.22666903      -1.13477225       0.11625385
H       -2.21065353       4.68622364       3.16593626       0.09913296       0.08945442       0.23068600       0.23992306      -0.37282035      -0.17187267
H       -2.40578611       5.40054661       4.72293561      -0.05261990       0.17026639      -0.23466350      -0.31808699       0.05199819      -0.01314205
H       -1.15846758      11.00053249       3.54053835      -0.01220001       0.10267221       0.33022534      -0.09051722       0.59950394       0.40585385
H       -1.55621854      10.36639492       5.16596864      -0.08390907      -0.02102866       0.11546968      -0.19188114      -0.48380744      -1.17146226
H       -1.99201501       7.25666028      -0.62989724      -0.15340906       0.03458608      -0.03146403       0.58296658       0.00011382      -0.28622835
H       -1.57265403       8.92424564      -0.67313996       0.12001569      -0.17092536       0.04306736      -0.19182829       1.07766256      -0.23280107
C      -19.60993831      22.46054364       3.80416697      -0.57690704      -0.25512790       0.46247164      -0.53071430       0.17111311      -0.21935779
C      -19.64776531      21.17207048       3.11130480      -0.52355725       0.19765981      -1.89590950      -0.64617235      -0.81801563       0.20367693
C      -19.70269131      22.46541156       5.24428772       0.15200675       0.91434909      -0.46687934      -0.46389588      -0.12014576      -2.03644601
N      -19.56065973      23.60901191       3.12265900      -0.62537352      -0.48273358      -0.48658947      -0.12096217      -1.22955007      -0.21345482
C      -19.88031417      19.90140329       3.77803588       0.45036672      -0.10747219       0.36480419      -0.19409608       1.19680604       0.14587428
N      -19.71212543      21.15691791       1.69919112       1.00567423      -0.60454634      -0.35577130       1.48419002       1.78765664      -1.42518470
C      -19.81548961      19.95009225       5.18395930       0.16714597      -1.17636050       0.32184061       0.15504743       0.15641560       0.93626562
N      -20.21566602      18.81783591       3.12911361      -0.22606003      -0.38113310      -0.12385083       0.27760082       0.64915261      -0.57547162
C      -19.77974344      21.19928253       5.92380044      -0.99033538       1.08584915       0.06143575       0.32919562       0.47293677      -2.09250001
N      -19.86106704      18.70298234       5.89446766      -0.79324436       0.63940089       0.00020899       0.19624539      -1.00385623      -0.31666099
N      -19.80260608      21.17574103       7.19635503       0.21211891       0.89473822      -0.20561774      -0.29800272      -1.53747844       2.94197024
N      -19.80498695      23.73766364       5.95204013       0.50920870      -0.48236927       0.00444369       0.28241696      -1.00635663      -2.31736265
O      -20.14994952      20.27742312       0.96035291       1.34964176      -0.06925023      -0.29608125      -0.61412240      -1.16730275       0.98582349
O      -19.18607653      22.13095175       1.14732056       0.07777094       0.60143161       0.11439232       0.04954052       0.45535152      -0.24540769
O      -20.32450027      18.65211847     -19.80070713      -0.51370348      -1.50608588       0.95165259       0.50106717       0.07569298      -0.26359787
O      -19.44890040      17.67484562       5.33395968       0.45448535      -0.96377212      -2.09877371      -0.34194896       1.13534151       0.42364714
O      -19.33125538      23.74060640       7.05176499       0.38861124      -0.31404738       0.41674717       0.07561755       0.87509906       1.94547289
O      -20.26924631      24.75487023       5.38009695       0.34141975      -0.51368983      -0.65539999       0.26101948      -0.94920193       0.72070009
H      -19.78817863      24.44957184       3.61421984       0.15150996       0.03250771       0.09299944       0.14003326       0.27750863       0.08655193
H      -19.44445342      23.56989190       2.09922423      -0.17394739       0.05802793       0.19546979      -0.01779835       0.06883819       0.92895665
H      -20.36368203      17.94227206       3.58741931      -0.04473307       0.07115714      -0.19868636       0.29882484      -0.13885801       0.25545219
H      -20.18345402      18.86959764       2.12257654      -0.01031504       0.29898261       0.00920024      -0.23726826      -0.36003031      -0.11236303
H      -19.82541969      21.99249179       7.77670243       0.01155510       0.00576517      -0.14397926       0.32871562       0.37109562      -0.04840636
H      -19.87892423      20.25319701     -19.20579489       0.01199419      -0.15265240       0.00395890      -0.09586172       0.83436710       0.03602232
C      -16.12492826      20.42441127       5.27084435      -0.64951609       1.00234658       0.87873771       0.16487879      -0.40377551      -1.65853661
C      -16.05494323      21.68791128       5.90894351      -0.18423327       0.07088169       0.44467027       0.08913994       0.83628259      -0.46839909
C      -16.19591175      20.41326126       3.85020986       0.39001783       0.01785940       0.11401539      -0.13046671       1.96579439      -1.64067654
N      -16.08953366      19.24578123       5.83994030       0.29050606      -0.49323420       0.23410108      -0.32429133      -1.11472956       1.12410589
C      -16.03702968      22.91237797       5.12812543       0.26800824       0.80153050       0.84668025       0.12175805      -0.88584994      -0.10439890
N      -16.00745722      21.74014658       7.32396594      -0.75121801       0.74418622      -0.40727278       0.39345617       0.57381781       0.28368896
C      -16.14534635      22.87826771       3.71880747      -0.50142993       0.03401576      -0.39536043       0.12649059       0.11276453      -1.35182160
N      -15.89338333      24.04558795       5.73885514      -0.36961032       0.82339772      -0.86608354       0.69445900       1.28934328       1.62846270
C      -16.15576717      21.63850142       3.02877113       0.19983669       0.52899150       0.31794363      -0.58612174      -0.87586162       0.68884782
N      -16.17710631      24.14737000       2.89722013       0.29296501       0.19124826      -0.55825098       0.10905832      -0.66360926       0.19897150
N      -16.18712496      21.65710829       1.70712186       0.87174298      -0.40954047      -0.05254957       0.36663195       0.67792347       1.66369730
N      -16.29524100      19.17938022       3.12812401      -0.22971465       0.56977122       0.29733308       0.57100721       1.14439328       0.95795869
O      -15.53511399      22.74202075       7.93027614      -0.56240344      -1.05379488       0.28973295      -0.65279353      -1.62945970      -0.48541524
O      -16.44446857      20.75440927       7.91457372       0.28340360       1.09030321      -0.64068401       0.18610613       0.58719369       0.57072579
O      -15.60492183      24.20257788       1.75746771       0.58855336      -0.72719472      -1.14991198      -1.32740036       0.45448183       2.87006669
O      -16.81573462      25.07185895       3.39882434      -1.19191831      -0.40661349      -0.11641668       1.07183095      -0.41846643      -0.96723484
O      -16.97543117      19.18251543       2.11533395       0.68165997      -0.52440465      -0.90440159       0.28663234      -0.94359115      -0.12038319
O      -15.65094443      18.22510384       3.58736364       0.67981998       0.91439909       0.43545046      -0.59478206      -0.32279705      -1.29520053
H      -16.02912408      18.37751202       5.28218611      -0.17682462      -0.13705773       0.24712524       0.06439219       1.02463223       0.71892035
H      -16.26684598      19.16573471       6.82713410      -0.04682094      -0.32613139      -0.07161154       0.17727057       0.11400813       0.13798704
H      -16.14926271      24.90920715       5.32396750       0.02930045       0.00691761      -0.14501635       0.08121504       0.53867088      -0.41736324