24
Lattice="13.9116 0.0 0.0 0.0 13.9116 0.0 0.0 0.0 13.9116" Properties=species:S:1:pos:R:3:momenta:R:3:forces:R:3 energy=-27547.7462462305 free_energy=-27547.7462462305 stress="-0.001647251448604538 -0.00032343028817485777 0.0017522793054658178 -0.00032343028817485777 0.003801340424093764 0.001579577120571831 0.0017522793054658178 0.001579577120571831 0.0011461406775986494" pbc="T T T"
C        5.48225724       0.55145345       0.54122116       0.60205420       0.96294805      -0.16884921       3.54171853      -0.08964934       3.80539135
C        4.31236977       0.97053105      -0.00931608      -1.28826525      -0.40526198       0.14524079      -0.00875114       1.76227278       1.15132915
C        6.66805960       0.59968815      -0.24411901       1.11254657      -0.38486577       2.05546739       1.39188883      -2.75658161      -0.07269820
N        5.82168500       0.33287695       1.90649118      -0.34338250       1.92771636      -0.93723492      -3.02915838       0.48345206      -4.13335899
C        4.26471577       1.52081073      -1.29549379       1.59475309       0.04096754       0.33965215       0.10619916      -2.11035391      -0.35725601
N        3.26915732       1.22036124       0.93448200      -2.08902229      -1.80344183       0.03829397      -2.44704783       0.39614631       4.00461799
C        5.28934451       1.30888721      -2.18363175      -0.19498277       0.23982847      -1.04477513       2.71357744      -0.96518118       5.54865916
N        3.04615132       1.84201724      -1.71769426       2.03965682      -1.70598454       0.18972574      -0.59832461      -1.17146261      -2.49917620
C        6.68795376       1.01046074      -1.54209303      -2.17897449      -0.84670900       0.57518329      -2.45834609       1.88513286      -4.42759188
N        5.16179006       1.39692468      -3.52587173      -2.70935888      -0.51109876      -0.45113501      -2.85757913      -0.67946356      -1.31208825
N        7.80895345       1.40507527      -2.23247695       1.25700257       1.38295472       1.07762309       2.29196678      -1.66727994       5.05129823
N        7.89760677      -0.40916768       0.25353886      -1.00706944      -0.81910531      -0.48426009       0.72178444      -1.20075885       0.08823459
O        2.39939972       2.13895836       0.90877679       1.35737308       0.32171013      -2.67551849       2.40829197      -1.87411501      -1.15326893
O        3.33731789       0.48767528       1.96473124      -0.20596783      -0.54150782       0.98537768      -0.63285547       1.25521069      -2.23801900
O        4.11480636       1.00761715      -4.08892533      -0.99683339      -0.20662794       0.16855924       1.19244186       0.49453029       0.52589503
O        6.12630526       1.81660869      -4.06366102       0.22402377      -0.51531351       3.77891960       2.13352030       1.02988509      -2.87511500
O        8.37161529      -0.12998313       1.40269804       2.27929810      -0.71495074      -2.84163745      -0.64750283      -1.46756306      -3.98676444
O        8.20435299      -1.44362940      -0.47289996      -0.35001230       2.01043308      -0.34001922      -1.15714857       4.75266753       3.11742719
H        6.65774636      -0.10808797       1.98451805       0.12511778       0.11577042       0.06883561       2.61561129      -0.79501302       1.13871233
H        5.35312365       0.75079037       2.64990049       0.05626455       0.16868932       0.31464669      -1.07855644       0.09416318       0.87277291
H        2.58599999       2.60821777      -1.34582202       0.32273863       0.12603192       0.22877402      -1.52696585       0.80496490       0.60966698
H        2.76729035       1.16396724      -2.42380188      -0.27835111       0.44064549      -0.55332971      -0.70040411       1.48470641      -0.15156251
H        8.12987399       1.53083047      -3.16662059       0.33090309       0.13163879      -0.69641723      -1.06380063      -0.21350746      -0.55114685
H        8.58248903       1.24086942      -1.51231271       0.34048800       0.58553290       0.22687720      -0.91055953       0.54779743      -2.15595864
