999
Lattice="25.462480038906936 5.592418645718876 3.7204953856240572 0.0 14.724440901871832 -8.990124035697022 0.0 0.0 21.579590605360483" Properties=species:S:1:pos:R:3:momenta:R:3:forces:R:3 energy=-156018.9262996849 free_energy=-156018.9262996849 stress="0.005747550759385715 4.646087962971488e-05 -0.0002062327699804845 4.646087962971488e-05 0.003923732310843359 -0.0017989927388828162 -0.0002062327699804845 -0.0017989927388828162 0.00551287971388566" pbc="T T T"
O        8.86697032       9.23880519      12.35230769       0.51581839      -0.00896577      -0.20379304       0.26387421       0.72187203      -0.00315023
H        8.45247563       8.47011381      11.97029708       0.02272515       0.09039151      -0.16361844      -0.96286720      -0.96583872      -0.07450631
H        9.58023957       9.34494769      11.72318622       0.00202204      -0.16756822       0.28215742       0.80456694       0.49183893      -0.06149644
O        8.23109063       9.26480714       9.06905433       0.89706534      -0.85618496      -0.27039407       1.88209260      -0.53986407      -3.11136443
H        8.40308285       9.77779405       8.19991666       0.17474125      -0.29488795      -0.27642936      -0.39097657      -0.50228897       2.00611434
H        7.80795119       9.88767549       9.62350114      -0.03107082      -0.10274361      -0.11160462      -1.12136915       1.34999427       0.77856268
O       -1.39742402       9.46138962       0.97659562       0.42466930       0.09434962       0.33593529       2.00125737       1.41408523      -0.76698686
H       -2.23390091       9.19379480       1.28823273      -0.35152158      -0.09514221      -0.22899170      -2.10357014      -0.72190584       0.57964710
H       -1.61558762       9.95076539       0.14379049       0.20674962       0.00236450      -0.21805221       0.21045202      -0.36316888       0.53125010
O        4.41936001       6.75808233      17.88106950       0.21040412       0.72257906      -0.20531157      -0.63782078      -0.42217080       1.44949534
H        4.05109478       6.44334867      18.76673853      -0.03869973      -0.14439805      -0.40555047       0.46643639       0.49345552      -1.75076054
H        4.36041060       5.97372063      17.29934398      -0.07731239       0.17621690       0.24854105       0.18882911       0.16177210       0.19882648
O        4.68481048      -0.66973850      -1.75663809       0.24529893      -1.30204249      -0.63616824       0.94661972       1.20472028      -1.06489242
H        4.02641171      -0.04272908      -1.41345081       0.10133317      -0.06297676       0.08673076      -0.38922603       0.30108231       0.08863428
H        4.61140760      -1.45806705      -1.24505010      -0.03391578      -0.22336824       0.00503899      -0.11688859      -1.14228427       0.83169269
O       12.48295881      22.14814770      -7.32218672      -0.19338457      -0.32876923       0.68207309      -0.43785049      -2.30549891      -0.12949049
H       11.92520049      22.82931387      -6.95566822      -0.18855107       0.19992210       0.00230957      -0.39682881       0.54205502       0.63565902
H       12.10635455      21.27538147      -6.95350475       0.01574462      -0.28435280      -0.00377740       0.71499620       1.50366163      -0.96190739
O        8.53104429       6.66492606      -6.20001661       0.58202568      -0.74867489       0.10766362       1.16760695       0.19727859      -0.67659913
H        7.89610602       7.30155702      -6.60809713      -0.01058473      -0.31783346       0.17191453       0.40122005      -0.37305414       0.08907314
H        9.46196857       6.89863077      -6.54327722       0.09198488      -0.19047811      -0.13819567      -1.62413649      -0.22689460       0.42074123
O       10.80126176       7.82335469      21.09847098      -0.13268920      -0.35181667      -0.57170408      -1.55124567       0.60180053      -0.09354385
H       10.05303060       7.95188484      21.75399738      -0.07477642      -0.03292413      -0.03840239       0.86782636      -0.23665692      -0.50079029
H       11.60163140       7.73416292      21.60662386       0.13186431      -0.28865404      -0.26280625       0.89510905      -0.31503028       0.88132369
O        1.53232994       3.60937218      16.47210851       0.25038381      -0.07379242      -0.56504042      -0.84128767       0.37053142       0.65605477
H        1.20122048       2.74583468      16.16977679      -0.13721834       0.06233913      -0.11596907      -0.12730005      -0.03059862      -0.31969331
H        0.79586105       3.98006486      -4.56103626      -0.05805351       0.06258366      -0.17481274       0.30007357      -0.26498330      -0.43599103
O        6.17540296       9.50475058     -16.80527772       0.20636963      -0.53832825       0.20043073      -0.84091792       1.08118843      -0.57807951
H        7.08917756       9.29585101     -16.61223180      -0.06037554      -0.19774160       0.20611320       1.23004524       0.05530992      -0.05888887
H        5.73854985       8.74188856     -16.42630590       0.05987295       0.39331468      -0.08313155      -0.55163078      -0.99332675       0.43981774
O       23.49182942      20.70428333       9.42178244       0.03615794       0.23176503      -0.43498547       0.00703833      -0.13754183      -0.33692553
H       23.39071245      21.43480492      10.05880712       0.20788506       0.00264783      -0.14015675       0.04352207      -0.14281066      -0.00079588
H       22.78003672      20.06891353       9.65406815      -0.02661037      -0.14484311       0.01319466       0.09758348      -0.11391259       0.08057604
O       11.10310002       6.95561136      14.23945191       0.46355440       0.41528533       0.20527660      -0.04603967       0.15612115      -0.06953311
H       11.20626651       6.02533768      13.96178482       0.13299373       0.17833292       0.12368139       0.03203955       0.85719083      -0.04528957
H       11.35085125       7.52233675      13.45637503      -0.05425699       0.27117169      -0.26629046       0.00845314      -0.92234738       0.81503146
O       14.11940283       4.72105209      20.81557959      -0.95100357       0.42384520       1.15978730       0.83899817      -1.24447864       1.92926237
H       13.85703385       5.55414115      20.43057753       0.01813255       0.00619261      -0.20533419      -0.17699764       0.81188434      -0.61068919
H       14.57176187       4.87104627      21.69550006      -0.03135910      -0.31962534       0.21925804      -0.37723013       0.03220921      -1.26710149
O       29.43838789      14.11031691      19.40066061      -0.33715293       0.21968712      -0.49909182       0.45298604       1.36331908      -0.14573558
H       29.82651325      15.03291193      19.52325697      -0.24949523      -0.42281894       0.02089024      -0.71364089      -1.12909196      -0.02353308
H       29.29520168      13.75340531      20.28812300      -0.21170843      -0.06912377      -0.09403558       0.05198016      -0.22711669       0.38350870
O       16.82281248       6.17479216       8.28328575      -0.61331200      -0.93309482      -0.17684431      -0.57994968      -2.43771368       2.03761926
H       15.94010604       5.70543651       8.34822614       0.07686832       0.00665099      -0.13142779       0.85514070       0.16226737      -0.01041148
H       16.67345630       6.78681443       7.61115516      -0.09521560      -0.23366201       0.52052661      -0.17566013       2.14948998      -2.08314585
O        3.02908879      14.07701211       5.74527213       1.28068813      -0.08463713      -0.30582209      -1.23660387       0.34850079       2.23275476
H        3.51147579      14.17059695       4.96383200       0.24285295      -0.02870092       0.40076143       1.36725735       0.12700294      -2.69268905
H        3.48587909      14.74548593       6.30025454       0.12409734       0.19711446       0.17071568       0.10808427      -0.31135000       0.51971317
O        1.82338342      13.55503439      -4.71527000      -0.04384568      -0.21021120       0.63226184      -0.16958733      -0.13889633      -1.01165233
H        2.66239281      13.61269539      -5.21189005       0.07055691      -0.12643317      -0.03988483      -0.32305950       0.10254015       0.45173107
H        1.96654469      13.93821249      -3.84468529      -0.05472444      -0.27634727       0.12415069       0.37330252       0.73978162       0.78671659
O       21.93417511      24.26026828       5.75013122       0.69457805      -0.05329019       0.69573074      -0.30825115       0.84085133       0.22384534
H       21.66650972      25.09852033       5.25021529      -0.05714920       0.12985142       0.04292911       0.73977860      -1.11204258       0.79620887
H       22.87278032      24.32957074       6.08045110       0.05457025       0.05755328      -0.21603537      -1.02023300       0.48788010      -1.26932020
O       25.28668990       5.41183041       6.22524265       0.18746941      -0.07454709      -0.09343448      -2.16263070       0.21111316      -1.46102445
H       25.95420214       5.08849794       6.80860713      -0.26792941       0.37238899      -0.10606948       1.01256827      -0.90161121       1.44888871
H       24.41691590       4.95657440       6.42101264       0.04164615       0.14861852       0.22365875       1.21848397       0.30174948       0.31525713
O       17.34744264       6.23739316      20.28982884       0.37867938       1.15632402      -0.48958012       0.14472886      -0.06912369       1.13561379
H       16.85077568      21.05148511      10.48671287      -0.27571373       0.10897081      -0.02628976      -0.44874985       0.15509589      -0.59733649
H       16.70464840       5.76960808      20.84129272      -0.09058938      -0.32077255      -0.09340955       0.23502530      -0.01973485       0.47750718
O       -1.83142887       7.51817334       6.45406977      -0.07171785       0.06200900       0.61707532      -0.81769161      -0.49032323      -0.49279461
H       -0.98571488       7.88855157       6.17825173      -0.01683114       0.01161111       0.01035987       0.26015159       0.26942365      -0.22139915
H       -2.45562688      -7.24433239      14.64679750       0.05796576       0.39214624       0.11137860       0.68971433       0.47016721       0.79094440
O       13.05596703      23.11960460       7.42422074      -0.88078622       0.57601122      -0.48494770       1.74109348       0.69066457       0.84671357
H       13.17525005      22.54502293       6.67772162       0.17235539      -0.11445887       0.06478398      -0.72101160      -0.75193806      -0.71535273
H       12.14526568      23.38000343       7.56896411       0.08127341      -0.13434740       0.09191863      -0.70953731      -0.46015678      -0.54131285
O        1.73865288       6.28048114       8.23526861      -0.61468730       0.04996858       0.05791376       0.69327723      -0.20007172       0.81152660
H        2.56773560       6.82111076       8.33408229       0.14329271      -0.07995970       0.16844082      -0.95779590      -0.60565957      -0.29917620
H        1.83608650       5.45812171       8.79396563      -0.09385969       0.06644254       0.08706528      -0.02135090       0.90181412      -0.38950568
O        7.30178151      13.10149867      12.81691694      -0.63355177       0.17230924       0.42574221       1.24166581      -0.00025514      -1.71735941
H        6.64534041      13.64867944      12.35933114      -0.04280198       0.20053613      -0.14977461       0.00912041      -0.05713932      -0.06788214
H        7.87016425      12.75944080      12.05205154      -0.06309876       0.04461252      -0.31894493      -1.07177898       0.54570229       1.41044031
O        7.17727379      -0.52534186       3.56366252      -1.25261383       0.58858486      -1.14834071      -0.36693998      -1.38120057       0.13809929
H        6.83201087      -1.36018729       3.12784296      -0.12352292       0.13391288      -0.11398223       0.51211733       0.43739848       0.68114498
H        7.11430650       0.11301477       2.85354818      -0.28820445      -0.08123795      -0.23168977      -0.06564399       0.89354609      -0.74457639
O       27.03868688      37.18474129      12.10431497      -0.79795844      -0.94580171      -0.89818156      -0.31059983       0.56147597      -0.34266708
H       26.41654536      37.93745112      11.90551278       0.05148026       0.09830110      -0.22657644       0.25958557      -0.93589824       0.21754660
H       26.52110769      36.48126461      12.54430542      -0.12936988       0.08502142      -0.00004457       0.13870591       0.36858997      -0.11144554
O        5.06330414       4.76537053      -5.48712587       0.34218898       0.40473999       0.61702700       1.55192730       1.62906010       3.30049655
H        5.83782742       5.28068445      -5.74967935       0.03836655      -0.04523441       0.11754085      -0.13526102      -0.09175818      -0.23328246
H        4.69087843       4.40642676      -6.23651350       0.21022106      -0.05751378      -0.30054300      -1.46764769      -1.63998143      -3.21320935
O       12.34670210      14.18707665      10.86676587      -0.22282888      -0.41151789       0.32215643      -0.92408923      -0.65580067      -1.01351048
H       11.65999762      14.45571809      10.17429945      -0.00818889      -0.24947420      -0.16497727       1.38408744       0.07256135       1.24502437
H       12.81300800      14.90767594      11.34861138       0.00656367       0.18552328       0.08350002      -0.97093031       0.10094683      -0.44057669
O       10.21003166      12.74725797      20.01501400       0.30589208      -0.71467135      -1.26402473      -0.36357014       1.01016779       0.17035266
H        9.36414977      12.65292488      19.55756900      -0.11713475       0.19538420      -0.05302784       0.01282388       0.07186730      -0.20966021
H       10.51131525      11.83856304      20.03816331       0.11415555       0.00726554       0.07788392       0.53240194      -0.95331310       0.12916311
O       20.81869645      14.75610172      -3.50372377      -0.16008073      -0.33232876       0.04194968       0.73001720       0.68418854       0.35000302
H       21.48236828      15.05417819      -4.13081075      -0.13757766       0.01489484      -0.20194284       1.10676985       0.86819009      -0.19644877
H       20.43733936      14.13880327      -4.09370992       0.33396660       0.21151588       0.02452617      -1.61328756      -1.66855782      -0.71950694
O        1.60096802      11.77313954      15.01567995      -0.05328668      -0.39346197       0.71580999      -0.69143637      -0.45285651      -0.51447021
H        1.76798199      10.89330459      14.63312568       0.04910601       0.11095667      -0.08133416       0.28993925       0.14523733      -0.21371144
H        0.66466251      11.88509557      14.72948996      -0.04596857       0.28103241      -0.12554682       0.40454857       0.27378673       0.18752222
O       20.57705193      14.31990483      14.72851707       1.12190774      -0.47973099      -0.35220546       0.47459592       0.06004879      -0.06679643
H       19.87183105      13.65103744      14.72033443      -0.14535420       0.08125160      -0.12474779      -0.32361396      -0.06568792       0.67877476
H       21.04226058      14.07448760      13.91868718      -0.04087463       0.14249693       0.07615872       0.31205001       0.39573146      -0.24472233
O       14.85656755      -0.60908828       3.90207079       0.52276965       0.06871151      -0.03138487       0.66905145       0.69283606      -0.10471185
H       14.98539495      -0.94961135       4.79825794       0.02210340      -0.00782600      -0.10391245      -0.08396886       0.06383611       0.51046353
H       14.00308111      -0.87981050       3.57438272       0.07762294      -0.22176125      -0.26900589      -0.70595959      -0.41425577      -0.07543787
O        7.87554935       5.00001623       5.43958721      -0.29840454      -0.08089471       1.58126544       0.11936671      -0.41138425       1.44171402
H        8.81544273       4.85598124       5.27135387      -0.24522665      -0.18354705       0.18479351      -0.05934532      -0.04371010      -0.21930210
H        7.49546166       5.37380143       4.64813950      -0.07107569      -0.20231125      -0.12125258      -0.29009154       0.55753864      -0.90539917
O        6.64460621       2.27314116      12.97867551       1.09583364      -0.03638468       0.16676412      -0.15086795       0.23379804      -0.12923096
H        6.62306893       2.32511308      11.99197079      -0.09155680      -0.04910414       0.22515473       0.56520631      -0.28376730       0.60110697
H        6.07797695       1.47679017      13.11797873       0.15696517       0.03701009       0.11422839       0.23548789       0.11105674      -0.21758564
O       -4.64030476       9.40694730      24.84385991      -1.03655520      -0.43010817       0.48913108       0.46930032      -1.59423116      -0.32031867
H       20.81969471      15.87466194      28.91600496       0.11113976      -0.12496092      -0.01825970       0.06134202       1.60374231       0.87492594
H       -5.10129599       9.53167032      24.01470702       0.28841027      -0.24969273       0.14613433      -0.30482015      -0.23736325      -0.60734222
O        9.55514940      17.74726173       1.89075191       0.10066321      -1.01756903       0.46900652       1.37749673      -1.62632539      -0.53069686
H       10.24501415      18.37646635       2.14229669      -0.01650738      -0.03662770       0.18339919      -0.04527623       0.33734767       0.10947748
H       10.11988186      16.92810123       1.70241778       0.12354985       0.10227701      -0.00259726      -1.24169577       1.36620719       0.36512597
O       34.40414653      16.94157212      -0.05642141       0.56260318       0.25216654      -0.00409077      -0.09022181       0.59389390       0.50198678
H       34.62355266      17.52753126      -0.81505659       0.04404976      -0.08281187      -0.09979706       0.23554411      -0.24126424      -0.03629479
H       33.68192912      16.38724325      -0.36537430       0.05565498       0.27761661      -0.08305890      -0.23966476      -0.68487258      -0.49055415
O       11.72617376      15.35165870       0.00293811      -0.73874650      -0.42475737      -0.00354264       0.31516126       0.64421212      -0.06184026
H       12.03931267      16.28640330       0.13204905       0.03630226       0.31569101       0.32317035      -0.24201152      -0.49907810      -0.00567120
H       10.81678584      15.40058144      -0.31806026       0.15480061      -0.02364969       0.05147533      -0.54645105       0.41344408      -0.17938139
O       -7.79560446       1.24708974      -2.05219113      -0.20014643       0.01020290      -0.59523296       1.41023336      -0.63718021      -0.26193820
H       -8.54312459       1.79665414      -1.86700806       0.10714345      -0.10721265      -0.13782040      -1.07730154       0.43302911       0.78743744
H       -7.19121376       1.18777271      -1.26533741       0.05828316       0.24124280       0.11873584      -0.41525594       0.16912248      -0.09222164
O       10.26192387      14.40405065       8.92515488       0.15299477       0.12162312      -0.59278969       0.14353860      -0.24873290       0.34990646
H       10.60069959      14.96856755       8.22241171      -0.06872035      -0.40657548       0.09176577      -0.08753320       0.60140494      -0.82952504
H       10.13678422      13.58086427       8.41351115       0.13198086      -0.04735511       0.32668044       0.18856718       0.15512993       0.28594180
O       20.42060120      16.94829573      15.73112124       0.61645636       0.12103997       0.94019399       0.37886951      -0.77642728      -0.10608744
H       20.14041224      16.07512029      15.38778186      -0.16555055       0.26318136      -0.00290765       0.45140672       0.10391493       0.13553531
H       19.60216658      17.42889474      15.92507158      -0.24080207       0.14064661      -0.04956890      -0.59167992       0.51917857      -0.06686329
O       26.43114933      12.47061049      -0.54884141       0.99921760       0.15541820       0.54435676      -0.97740929      -1.17518070       0.60036366
H       25.90723517      11.88590771       0.09681793       0.08722880      -0.18135915      -0.21632713       0.60733469       1.48150888      -1.16674507
H       26.79693854      13.23721537      -0.07329371       0.20505808       0.22131622      -0.01344560       0.17304239      -0.19925998       0.41453162
O       15.94253454       2.39382169      15.51643730      -0.10115661       0.62797181       0.13360691       0.03837784       0.34099702      -1.63594061
H       16.42597531       1.58301482      15.66991302      -0.23594621      -0.37251482      -0.03576360       0.68151962      -0.89606899       0.89531627
H       15.79922893       2.23658926      14.52227636      -0.04324413      -0.14297394       0.01566787      -0.08982554       0.42123040       1.09518967
O       -7.08340101       8.95565434      -8.70800289       0.30978890      -0.08968676       0.35639381      -0.16083560       1.05346105       2.24230887
H       -7.36313076       8.10412598      -8.30284763       0.25310874      -0.17305565      -0.11432047      -0.00342005       0.56965661      -0.25507261
H       -7.10228530       9.59215436      -7.87709006      -0.15289454      -0.14495612       0.09867000      -0.16321903      -1.53392384      -1.82914623
O        4.10697093       5.04018192       5.09347033      -0.47292941       0.27195864      -0.36886633       1.26456083      -1.35303700       1.88365611
H        3.82510509       4.32531126       5.77881248      -0.17833681      -0.25146979       0.14016127      -0.16295528       1.52902959      -1.23561947
H        3.37138000       5.46287613       4.67441888      -0.10367475       0.12607430       0.18404572      -1.51615377       0.00521853      -0.45684216
O        9.56226119       0.10740855       0.74430633      -0.12488143       1.03254441      -0.03842116      -0.27254001       0.28329392      -0.81441795
H        8.90628571      -0.60574692       0.76195337       0.11685288       0.14557640       0.03539064      -0.18070884      -0.20720254       0.33796454
H        9.45437153       0.41061624      -0.18185602      -0.27058754      -0.08684120      -0.05617903       0.22624062       0.28129061      -0.02765625
O       25.10073006      -4.93457495      17.01126083      -0.08404723      -0.50624252      -0.51978305      -0.83062556       0.20144589       1.34605656
H       24.42929076      -4.88628522      17.77611044      -0.08011609      -0.25705876       0.03622327       1.04831698       0.04220009      -1.20849845
H       25.82843937      -4.31217230      17.26759503       0.09622767       0.12422227      -0.25078802      -0.42376884      -0.13977327       0.11511332
O       33.27204797      26.42458630      12.71673595       0.91060557      -0.01707909      -0.28981513      -0.49645246      -0.90008264      -0.34561643
H       33.50125833      26.69000636      11.80106543       0.13438192      -0.11754418       0.13785661       0.40114042      -0.04668037       0.01030484
H       32.79958828      25.56577529      12.61484512      -0.05709286      -0.06032389      -0.21142711       0.17220943       0.72203365       0.23941888
O       25.40891286      12.85000640      26.55983431       0.36198827       0.49585988      -1.01818489      -0.05494184       0.29014321       0.19286310
H       24.97691456      13.72202557      26.34952051      -0.14152567       0.06053727      -0.22478396       0.05512869      -0.32634626       0.10162301
H       24.76687857      12.17228112      26.23962793      -0.10454948      -0.09198939      -0.12468440       0.21396786       0.46810282       0.10771872
O        6.92951336       1.84065423      10.38631151       0.72940551      -0.69150728       1.64706059      -0.78885208      -1.11463681       1.14957796
H        6.38666524       2.57003967      10.08178654      -0.08171619       0.02560917       0.19270292      -0.10814797       0.60605888      -0.95495109
H        7.80799640       1.84712006      10.02647447       0.22538297      -0.03770009       0.19452051       0.70342003       0.37279925      -0.55956348
O       24.56693131      10.24826185      -6.49956035       0.22861012       0.92199834      -0.80988484       0.26168137      -0.31486155      -0.08713711
H       24.48599117       9.76747098      -5.65340314      -0.19196728      -0.11351673       0.08562833       0.62318372       0.19135302      -0.30675407
H       25.38739030       9.89915052      -6.95561276       0.04564365       0.01955146      -0.04826892      -0.74381102       0.40230303       0.75529297
O        3.49397312      -0.81200997       1.92018790      -0.45363689      -0.51772410       0.10713967      -0.95553628      -0.54535601       0.09862792
H        3.18139397       0.09457412       1.72515828       0.09924827       0.02251855       0.07771732       0.19886546      -0.36009707       0.21579544
H        2.69211332      -1.39526288       2.04133322      -0.08574753       0.05248383      -0.31333014       0.82318698       0.70555041      -0.56963364
O       11.00060902      18.74561627      -1.70794018      -0.32871735      -0.31835732      -0.96404269      -0.22757840       0.75961594      -0.58433548
H       10.91170544      19.08156174      -2.64350692      -0.16436663       0.05758033      -0.08671853       0.17548227      -0.78246854       1.07001974
H       10.07109849      18.72475522      -1.35850071      -0.22320939      -0.16795791      -0.27663956       0.53595944      -0.21441448      -0.56336111
O        9.96805145       6.23634336      31.11926427      -0.71717027      -0.02356216       0.26635763       0.07347211       0.15196331       0.52563113
H        9.69755017       5.40281106      30.71175082       0.34642775      -0.04927521       0.09491685      -0.22333048      -0.07398805      -0.03230996
H       10.44868030       5.98881406      31.94170892      -0.17355773       0.04456195       0.06003022       0.11920592      -0.01505258      -0.18645970
O        7.52668127      15.16136684      -2.51057560      -0.15403486       0.04508726      -0.83081356      -1.39071420      -1.10120348       2.04446241
H        7.90063033      15.45179335      -3.29946030       0.16103023       0.07038383       0.20284783       1.08600708       0.94561875      -2.62852206
H        7.34640200      14.17991148      -2.58463352      -0.20257498       0.06820794      -0.00525672       0.22426261       1.05773929       0.27758872
O       18.75491849       9.44036113      25.68149662       0.59674396       0.36687652      -0.43330619      -1.95418119      -1.52430667       2.19088256
H       17.77455661       9.36685611      25.97912469       0.06068323       0.25411180       0.29508716       1.99577420       0.71082508      -1.21596357
H       18.85745656       9.90063999      24.85442158       0.10667959       0.13569505      -0.02255776      -0.32128308       0.91838512      -0.78654423
O       21.42887554      21.78009927      14.04628688       0.81711858       0.55433157       0.20005354      -0.11320584      -0.91868868      -0.26658326
H       22.22061281      21.21100958      13.94058240       0.08982947       0.11171834      -0.00432621       0.12567784       0.14660261       0.31303690
H       20.81018045      21.38152843      -8.18911330      -0.03665904       0.14155366      -0.18441720       0.30327948       0.66288171       0.02894825
O       32.32037017      15.08428185      -0.95222342       0.46396002       0.31318237       0.44362966      -0.45760192       0.28257867       0.74839087
H       31.73874827      15.36851679      -0.21682944      -0.11651816       0.01532796      -0.04566641      -0.05106121      -0.23247534      -0.21208390
H       32.45270635      14.15094725      -0.73231507       0.08382678      -0.02556345       0.09398181       0.19564077      -0.08215366      -0.04985446
O       12.12985359      -0.97798849       5.32801155      -0.07185926      -0.33888813       0.11991356      -1.10954718      -0.77531915      -0.11688847
H       11.54945164      -1.30171197       6.05699151       0.22793033      -0.19541854       0.07787333       0.42682023       0.39797311      -0.31852696
H       12.50060104      -0.13557416       5.62298474       0.26196063      -0.08869994       0.18216998       0.38587250       0.10661904       0.27063910
O       26.82034712      21.87292046       4.16139415       0.03711853      -0.40254156       0.40399116       0.71731058       0.34714167      -1.50621174
H       26.77819583      21.95456727       3.16987797      -0.18406465      -0.19580620      -0.19472661       0.16849820      -0.20731577       1.21700395
H       25.88972680      21.86337310       4.41397990      -0.04696151       0.14592662      -0.07296556      -0.81244020      -0.02299619       0.17648814
O       -3.52750568       5.18914258      13.93731057      -0.36812492      -0.92486118       0.65291428       0.64109301       0.42894672       1.14837265
H       -3.85336935       5.13677350      13.05217606      -0.03752755       0.10247283       0.22222697      -0.42420236      -0.30030588      -1.22238785
H       -3.01382963       4.38617477      14.07932318       0.15929928      -0.02360448      -0.13727505       0.12552229      -0.04212933      -0.01155998
O       18.70197494      15.10716810      23.77307335      -0.81056907      -0.24533265      -0.74710151      -0.48246164      -1.65266610       0.34221093
H       18.83584677      14.11683507      23.68844961       0.14654793      -0.16419317      -0.29856246      -0.11961326       1.51113109       0.01638863
H       19.35250975      15.45349749      23.14780544       0.03601917       0.05251566      -0.17788756       0.50126746       0.48096787       0.08650342