1296
Lattice="-23.256285726295186 23.002079289045106 16.827237126149974 0.0 23.895640754198585 13.914895861674074 0.0 0.0 -27.47519629430271" Properties=species:S:1:pos:R:3:momenta:R:3:forces:R:3 energy=-1487821.8378552578 free_energy=-1487821.8378552578 stress="0.003948029607264739 0.000340285555820684 0.0006932367297848798 0.000340285555820684 0.005698673520850711 0.00039784207262355146 0.0006932367297848798 0.00039784207262355146 0.007015331240046179" pbc="T T T"
C      -21.21615272      28.45805078       8.38652752       0.31323139       0.69341667      -0.06984995       0.27532338      -3.60995730       1.26816310
C      -21.37603627      27.02748168       7.91080863       0.07616367       0.50030251      -0.09927474       0.20308231       3.37120786       0.07834424
C      -20.98219529      28.56184316       9.81519562      -0.14720497       0.63810039      -0.43499519      -0.60364477      -0.76401314      -0.14008467
N      -21.23640557      29.44148424       7.54579077      -0.61665707      -0.93713717      -0.19275190      -0.60923262       1.25319735       0.53969194
C      -21.19192659      49.86155561      22.65594695      -1.00497777       0.49995418       0.17614096       0.80487156      -4.13574758      -0.53520150
N      -21.46406029      26.78262249       6.53376922      -0.20845071      -0.53994914       0.52060640      -1.79604470       0.83220139      -3.03055309
C      -21.13758671      49.99758421      24.04977541      -0.13464870      -0.33415190       1.06123792       0.57032977      -0.11294644      -0.36764398
N      -21.05830185      48.61746232      22.06061916       0.21371378      -0.12592952       0.72227047      -0.78862712      -0.31893460      -0.61423563
C      -21.18192924      27.35767035      10.70244006      -0.69553072       0.09118112      -0.07478387       0.32597311       3.81740580       1.09288161
N      -20.94362050      48.88491196      24.88443413      -1.21577406       0.19579606      -0.13870122      -0.78652063      -1.90128481       0.03403467
N      -21.32789958      27.55095253      12.01282450      -0.39635744      -0.49777431      -0.93276032       0.00746228      -0.67258915       1.98753325
N      -20.66419649      29.86948455      10.35050886      -0.05238170       0.13702487       0.23994475      -0.43701015      -1.14192133       0.20782262
O      -21.06063677      27.69465818       5.75858736      -0.58975798       0.13234483      -0.05876481      -0.16713175      -1.60141658       0.70168468
O      -22.09555615      25.80698399       6.05229364      -1.10474247       2.13409715      -0.82428946       1.39124674       1.42836696       0.99340898
O      -20.34660281      47.88440333      -3.03217588      -0.09990785       0.05714612      -0.10846428      -0.35661662       0.91033999       0.70375954
O      -21.48363502      48.87800870      26.00452884       0.61548789       1.04458493       0.47391023       0.77099023      -0.26423129      -0.69435156
O      -20.66808601      30.81195684       9.57276903      -0.30082877      -0.56022923      -0.03221273       0.15522125       0.89674231      -0.04377947
O      -20.39480785      30.03194858      11.53967704      -0.08236779      -0.66703080       0.43305714      -0.14004635      -0.35798880      -0.08105994
H      -21.18951411      30.35209695       8.00778450       0.12931156      -0.19933021      -0.36540980       0.04591438      -0.06268449      -0.76554289
H      -21.48898674      29.26409220       6.59443640       0.26879895       0.04733750       0.21822190       0.37495677       0.21979813      -0.13194604
H      -20.58448347      47.79657910      22.39138996       0.13865393      -0.23808679      -0.19967672      -0.10698160       0.64427644       1.16797644
H      -21.54497121      48.37683681      21.18434310      -0.02902581       0.17402499      -0.27609799       0.47135885       0.94381964       0.62859512
H      -21.33373033      28.50334546      12.47224474       0.09684093       0.03666164       0.15580253       0.33535338      -1.81372623      -1.30786773
H      -21.31816007      26.67565076     -14.80568202       0.02874463       0.31878690       0.51201846      -0.17953976       2.44887016      -1.69740255
C      -18.03349826      20.58420764      10.06150303      -0.41311021      -0.06989983       0.24940230       2.72876147       1.42631411       0.83984547
C      -17.74505470      21.81136668      10.82790345      -0.04774532      -0.26037975      -1.20509322      -0.27699016      -1.16053163       0.34066166
C      -17.90541107      20.72435620       8.66115490      -0.14947178       0.86811223      -0.90630931      -0.43869564      -0.41956443      -0.97213446
N      -17.98315187      19.38530106      10.60920728      -0.36303494      -0.14805474      -0.23615079      -0.15007822       0.80756459       0.56064346
C      -17.54359822      23.08906434      10.17601840       0.85529163      -2.10199622       0.36974927      -1.01844155       1.23129342       1.16912645
N      -17.61824984      21.67404224      12.27612724       0.37617999       0.11114570       1.16154031       0.89796751       1.32385859       0.38035224
C      -17.69516296      23.19337837       8.75472944       1.27525126       0.21713687       0.15635920       0.23035987      -3.31279437      -1.48340712
N      -17.33458290      24.21861367      10.88102171       0.28854416       1.05239754       0.14181185      -0.17994750      -0.84920263      -0.94886972
C      -17.72989490      21.90868503       7.92462882       0.37342005      -0.02961077      -0.11349293       0.22321789       1.39968033       1.65430450
N      -17.83420443      24.41575765       8.12563303      -1.18643655       0.20535748      -0.71757278      -0.19209513      -2.21240706      -3.83856472
N      -17.59510062      21.85498003       6.61564286      -0.49843752      -0.76143410       0.08662187      -0.07950323       0.63260498       1.10144971
N      -18.02645393      19.47926297       7.92621347      -0.40619392      -0.51940772       0.94153226      -1.28224916       0.35406138       3.26124321
O      -17.53485159      20.55441169      12.80823390      -0.23845283      -0.16863165      -0.43013348      -0.44234954       1.10499860      -0.28993809
O      -17.50022092      22.71280551      12.97959921      -0.54418604       1.28801023       1.07999875      -0.41951255      -1.77768887      -1.04754312
O      -17.94263306      24.43160723       6.81150506       0.46387117      -0.79085117      -0.16053717       0.28168089       0.38298149       3.06902591
O      -17.92380441      25.40116309       8.78320470      -0.42910148      -0.67367881       0.30753241      -0.15208369       2.77759626       0.03752584
O      -17.34550211      19.22549679       6.97588451      -0.51955878      -0.22132812       1.00847965       0.26690210      -0.44632665      -1.68504287
O      -18.79165742      18.67846971       8.50319887      -1.35008061       0.01952453       0.87254346       0.35773780      -0.46044776      -2.75466949
H      -18.15200403      18.63600711       9.91833176      -0.07541990      -0.06885471      -0.64771676      -0.00210915      -0.03111485       1.71078383
H      -17.76871253      19.37778108      11.62308326      -0.02204583       0.32340649       0.08195808      -0.45147000      -0.47825510      -0.96906994
H      -17.46340340      25.11333634      10.38990004       0.20604407      -0.00587413      -0.39861606       0.29614698      -0.78174897       0.56038970
H      -17.39020479      24.13983445      11.87815808       0.15324233       0.13292086      -0.07101580       0.11532221       0.08377568       0.21604844
H      -17.58592012      20.92434580       6.19325397       0.13724740       0.00979161       0.10641634      -0.01751783       1.18357447      -0.45117581
H      -17.70774642      22.79425458       6.21490660      -0.07052936       0.19696887      -0.06765992       0.20963061      -0.52926395      -0.63575607
C      -12.85887990      13.26728626       4.18144391      -0.71187081      -0.65139754       1.39526524       1.55923291      -0.04994321      -2.18844650
C      -12.64011802      12.35799939       3.06692366       0.10969712      -0.02435967      -0.37123424      -1.18240301      -1.76263965      -0.02830178
C      -13.24325207      12.76020021       5.38877563       0.87533982      -0.81023327       0.60969010      -0.96243470      -1.38490526       3.49701635
N      -12.53135170      14.52125101       4.01298490      -0.55768091      -0.55858613       0.63843375      -0.21278744       2.16465624       0.63615984
C      -12.93154120      34.84516030      17.20418028      -0.28314067       0.12377917       0.49492139       0.51935553      -2.21819091       0.64993013
N      -12.27653496      12.73943855       1.75512941      -0.66549097       0.35347348       0.49340159       2.67021694       1.74441301      -1.57355987
C      -13.02815960      34.36832129      18.55939099      -0.10399128      -0.57777982       0.52528058      -0.13941354       0.03328134      -0.18953742
N      -12.97206959      33.86495439      16.31085167      -0.40537911       0.24231257       1.32201042       0.27623680       1.15393268      -1.25568036
C      -13.28510574      11.35876672       5.70587482      -0.35738620       0.01156201      -0.96083485      -0.72795684      -0.51977477      -0.10745392
N      -13.01722112      32.94630113      18.87035801      -1.60036281      -0.45645180       0.82934488       0.70064703      -0.90566267      -0.11754564
N      -13.68651652      10.87205281       6.87939508       0.72664691      -0.63576334       0.82422518      -0.51575720       1.74683566      -0.07790800
N      -13.61643517      13.63384860       6.49024422      -0.19894327      -0.30880690      -2.24871176      -0.29992086       0.43673973      -1.66450593
O      -11.95760944      13.94631479       1.51860351       0.09061643      -1.97281461      -0.71801970      -1.51216716      -1.60555697       0.71810191
O      -12.02313480      11.91422102       0.84281845       0.05300226       0.81288750      -0.00030152      -1.16293415       0.23705376       1.62217088
O      -13.28060688      32.06210451      -9.41528898      -0.24891379       0.22348197       0.41269598      -0.23877512       1.10941516       0.62408480
O      -12.60529195      32.63247044      20.01008286      -0.66625096      -0.98749024       0.53644796      -0.28685259       0.16653609      -0.53164849
O      -14.28824706      13.20559590       7.41086222       0.67155350       1.39613397      -1.66689535      -0.10000409       0.26472910       0.45779459
O      -13.37008705      14.82780874       6.37646894       0.51065378       0.28185678      -1.17587241       0.31067144       0.36171735       0.69652103
H      -12.57123278      15.23388579       4.74861853      -0.06498794       0.12927611       0.31605323      -0.26733349      -1.11314378      -0.38202274
H      -12.44721837      14.83251178       3.08152101      -0.16679312       0.34950604      -0.64483276       0.38904702       0.24584673      -1.14765217
H      -13.21642397      32.88818033      16.39468370       0.01514356      -0.16603842      -0.02126016       0.01363626       0.37711304       1.19518723
H      -12.66724007      34.08454222      15.40386956       0.12639490      -0.28625722       0.15593397       0.18609087       0.66432705      -1.17964480
H      -14.20542988      11.60498084       7.44835197       0.14793753      -0.03156196       0.06323931       1.05920560      -1.62484440      -0.38577408
H      -13.61578422       9.86308496     -20.52772687       0.07442440       0.04456791       0.21821368      -0.19859410       0.43401791       0.54505783
C       -9.32575255       8.72965076       6.70795392       0.14981832      -0.64760966      -1.38045840       0.35237519       3.80546417      -2.71027501
C       -9.09013242      10.03835469       7.27817431      -0.38630528      -0.68560702       0.36617553      -0.44022306       1.53509536       0.97355101
C       -9.44704629       8.76443943       5.22524037      -0.83828324       0.30568325      -0.16166201      -0.75046226      -1.02750185       1.37574304
N       -9.36194787       7.66233145       7.39079189       1.85885969       0.52194472      -1.36842076      -0.53054151      -2.27776931       0.88391923
C       -9.20848181      11.30126711       6.49689896       0.44469852      -1.25715285      -1.33549728       0.01317349      -2.30803040      -0.76737256
N       -8.91977954      10.17464662       8.79565858       0.34570900       0.34414983      -0.98781071       0.01920268      -1.03948880      -1.34962286
C       -9.35434527      11.20140832       5.04650522      -0.84622037       0.36077238      -0.76397518      -0.03120844       1.77290590       1.05506705
N       -9.11401597      12.45045298       7.06425463       0.42835820      -0.21146718       0.92318362       0.05323010       3.19126511      -1.26934046
C       -9.37190311       9.95428419       4.47455480      -0.17858499      -0.51984870       0.39796232       0.42415147      -1.78887559       0.63134300
N       -9.30323044      12.38237403       4.20609986       1.76976938       0.34455532       1.15806347       1.53889010       1.50980988      -0.65469296
N       -9.17664842       9.81203566       3.20227715       0.26717591      -0.77393866       0.44057418      -0.89881369       0.31971186      -3.05851877
N       -9.91662421       7.58177077       4.52424531       1.22711924      -0.00319986       0.09101220       0.70589336      -1.97222801       1.82797710
O       -8.45759296      11.17233292       9.30112588      -2.30202811       1.60979932       1.46603966       0.17358105       1.19661814      -0.64278717
O       -9.18836786       9.22432920       9.53385504      -0.78516244       0.48035880      -0.13930631      -0.48369880      -0.70394495      -1.04165523
O       -9.40441059      13.48948530       4.76217681      -0.93034448       0.11070624      -1.10551553      -0.56186530      -0.57229025       0.16862195
O       -9.01891751      12.39222943       2.97383568       0.12106863      -0.41032158      -0.24515659      -1.07621548      -1.14484266       1.92569301
O      -10.50743302       7.57100028       3.47351795      -0.39914687       0.14809760      -0.10571503      -0.11667459       1.21961021      -0.86018213
O       -9.70345801       6.47573354       5.08667127      -0.00778242       0.47663083      -0.23341183       0.25762983       0.84659574       0.29425854
H       -9.40158758       6.80253285       6.82413556       0.11375251      -0.05229411      -0.14223250      -0.21909394       0.22283923       0.88024422
H       -9.49817901       7.76144671       8.40118088      -0.26892245       0.19286796       0.09787617       0.49890647      -0.52037758      -0.53937435
H       -9.15934888      13.38198350       6.49557330       0.08624970      -0.10416997       0.13638218       0.17472494      -2.78738461       1.45521715
H       -8.74753839      12.40587347       7.97919144       0.10313033       0.11128234      -0.03985852       0.12031382       0.58655938       1.30775018
H       -9.44323254       8.93369887       2.78117616       0.23954292       0.02022734      -0.35747593       0.09309788       0.05627993      -0.01981619
H       -9.42975326      10.62567457       2.64830398       0.15702054       0.02194479       0.09747514       0.76018261      -0.14537373      -0.27826276
C       -5.70054927       9.62098305       3.65145452       1.10361152       0.39265609      -0.37920113      -1.44396024       0.36072221      -1.97000181
C       -5.82854885       8.36878844       2.91302067      -0.62845174      -0.01749258       1.59334881      -0.37707229      -0.29042569       1.75606704
C       -5.81780892       9.64572690       5.06000883      -0.14545316      -0.64836943       0.44076556      -0.03896713       0.64418949      -0.00157573
N       -5.70640852      10.72480094       2.92430518      -1.63296529       0.79808502      -0.85273041       0.27920165       1.36554510       1.59985310
C       -5.96964578      31.07298651      17.68629217      -0.65925338       0.74310611      -0.83489845       1.20565700       0.31450967      -0.94903409
N       -5.86380418       8.34420953       1.47445644      -0.57115283      -0.37885309      -1.00401513       2.05464438      -0.05379323       0.33927151
C       -5.62610775      31.13638645      19.09783574      -0.15812555      -0.07221454       0.17770173      -0.64709676       1.26001826       1.55647119
N       -6.23946713      29.92091223      17.13273881      -0.46281616      -1.46326550      -0.59341390      -0.08127118      -1.72824542       0.12409159
C       -5.73906833       8.48283274       5.91895913      -1.14928099       0.20268652       0.46308948       0.03899321       1.67784214      -2.16138740
N       -5.53357881      30.02144874      19.95875848      -0.96901159       0.92073829       1.21296464      -0.16622733      -2.87012505      -0.79581601
N       -5.77641930       8.56838719       7.21295297      -1.15335853      -1.43319477      -0.44938184       0.46570799      -1.36655398       0.10057888
N       -5.80733109      10.96638672       5.63982123       0.64276671      -0.07970609      -0.02030272       2.38277681      -0.72733955       3.01715694
O       -5.73531489       9.44414721       0.84314502      -0.05071350      -0.19169903      -1.06402833      -0.75270678      -2.77799141       0.08837303
O       -5.77011746       7.23459373       0.89917269       0.24865778       0.08415528      -1.67941350      -0.88049472       1.74677248       0.33842754
O       -4.99104318      30.05298109      -6.37319271      -0.77525740      -0.09894495       0.83300405      -1.04340526       0.06816241      -2.10326326
O       -5.97391688      28.93493269      19.50012335      -1.53641218       0.42800503       0.66518652       0.90516029       1.10998558       1.11497610
O       -6.06414829      11.03079068       6.85115582      -1.39753386       0.05913674       0.30354134      -1.13079723       0.00740551      -0.48355651
O       -5.27265804      11.93350272       5.12190956      -0.43199139      -0.14971729      -0.49698510      -0.63321881       0.54314313      -1.39390765
H       -5.70543132      11.67386251       3.32718158       0.18409444      -0.11618790       0.03956387       0.16033756      -1.34296559      -0.17279144
H       -5.72263351      10.61631656       1.93357507      -0.03885254      -0.02471231       0.31085003      -0.09135347       0.07255330      -0.48962633
H       -6.11157763      29.04245586      17.63686415       0.22110543       0.28083460       0.12987065      -0.29597064       0.74766315       0.26442329
H       -6.18809756      29.82381760      16.14430612       0.06857462       0.14997472       0.24838857      -0.05384836       0.41859425      -0.77525434
H       -5.75416938       9.44461512       7.72111445       0.02760738      -0.11670548      -0.33233580      -0.11113604      -0.12509130      -0.37160475
H       -5.51121739       7.66271229     -19.84859855       0.28794638       0.13087425       0.05791214      -0.07994933       0.86661094       0.74055286
C       -1.72531713      11.62262121       4.64095035       0.66912901      -0.23045356       0.17239110       0.45228808      -1.02208878       2.17773016
C       -2.05011972      12.89734671       5.16536725      -0.33474340      -0.49858190       0.47930825      -0.91762627       0.62131278       1.46632439
C       -1.41254038      11.49384022       3.30255526       0.05509196       0.15367190      -0.05391931       0.21501277       0.39082679      -2.51057884
N       -1.62259499      10.52181369       5.42912155      -0.42690197      -0.10500356      -0.76157465      -0.54452029       1.79324823       1.03194797
C       -2.11323103      14.09241301       4.40513555       0.10601758      -0.47786112       0.40344571       0.55218718      -1.77273611      -0.54653067
N       -2.52032380      13.04993893       6.55832399      -0.51219864      -0.02463680      -0.14585448      -0.58439360      -0.80082218       1.34192024
C       -1.61232970      13.92615356       3.09547970       0.01732970      -0.47828461       0.28729233      -0.57935485      -0.67816999      -1.19443349
N       -2.56769317      15.25924026       4.84536201      -0.09870331       1.04099859       0.39440395       1.50572936       1.18732372      -4.31003941
C       -1.32151489      12.67753342       2.45489984       0.41989421       0.42339342       0.89303572      -0.87582400       0.85448601       2.84374967
N       -1.65823152      15.11748099       2.17761455      -1.58089386       0.97089601      -0.86098055       0.49863512      -1.42213312       2.91826552
N       -0.95385623      12.65463921       1.20720045       0.93315345      -0.23726323       0.43961400       1.04990439      -2.40365224      -1.53489297
N       -1.26132830      10.17564636       2.71738057       0.18789341      -1.57078650       0.25021198       0.33992515       0.63235508      -0.04276186
O       -3.41097130      13.85426344       6.85139453      -1.07118920      -0.54004393      -0.03786431       1.26347643      -0.21904061      -1.06790210
O       -2.04838630      12.33158932       7.45146102      -0.49990455      -0.68110549       0.79880948       0.24707765       0.15182560      -1.12537533
O       -0.79483995      15.92332538       2.40679345      -1.39661194       0.10682763       0.14350704       0.82280394       1.20487165      -0.49197844
O       -2.59245810      15.26779810       1.45419261       0.51269695      -0.45216091      -0.10233740      -1.08678776       0.21125733      -1.55517147
O       -1.70478733       9.17169108       3.25591679       0.39203331       0.07779612      -1.12298924      -0.55939017      -0.26102944       0.64861219
O       -0.67645646      10.06706872       1.64996969      -0.90796782      -0.31688048      -0.22549873       0.39782846       0.38915971      -0.75055598
H       -1.37503698       9.62661640       5.12021956       0.16249515      -0.41432175       0.42312784       0.13568662      -0.81089003      -0.81448362
H       -1.65738736      10.61656326       6.42246555       0.04112416       0.14004445       0.15209467      -0.19804568       0.40213391       0.22959183
H       -2.25499799      16.00971241       4.21219105      -0.16640293       0.08805488       0.31946574      -0.62219576      -0.28896763       1.06754779
H       -2.75918081      15.50661165       5.74531506      -0.06814588      -0.06760498       0.04829219      -0.67797677       0.12408846       2.60254730
H       -0.65054892      11.72998026       0.88520001      -0.06841869      -0.20196833       0.14526237      -0.20260587       0.65492729      -0.03054967
H       -1.13501565      13.29044639       0.47115569      -0.13256040       0.32498696       0.12054207      -0.26141141       0.99988540      -0.15937902
C      -20.40481141      36.80216851      12.79939283      -0.02737279      -0.28355531      -0.61112703       0.51692675       1.12619375       0.48885580
C      -20.29230120      35.59638988      12.10250972      -0.81437649      -0.15547970       0.19345152      -0.20011296       3.16442830      -2.33295522
C      -20.46976407      36.76662076      14.17654193       0.68068910      -0.35963174      -0.03247640      -0.79448782       0.00907793       1.26766197
N      -20.31479847      38.00072383      12.20053146       0.89033676      -2.27352786      -0.33804262      -1.39402426       0.87109725       0.04110562
C      -20.21464677      34.39616024      12.68019931       0.39552393      -0.14859133      -0.19802780       0.97215885      -6.36466084       3.66798223
N      -20.27880689      35.69986775      10.70252048      -0.26145645       0.19001269      -0.28308877       0.10489625       0.89367399      -1.47864235
C      -20.16235148      34.32832093      14.16326833      -0.25153580       0.62372543       0.18047168      -0.36434423       1.93267164      -1.88920090
N      -20.05471063      33.18745716      12.01954844      -0.93910919      -0.52834864      -0.98257921      -0.79758089       2.13414824      -0.12354153
C      -20.28789450      35.57426728      14.90613328      -0.74760733      -0.27870014      -0.16579088       0.25488112      -2.36377327       0.21208454
N      -19.87716030      33.11213093      14.83537376      -0.01066632      -0.46720206       0.71164588      -0.10818240       1.45335783       0.68964266
N      -20.25349816      35.50376131      16.23481237       0.08786858       1.23848816      -0.46689487      -0.97231631       5.38531918       0.44762013
N      -20.84163045      38.05318691      14.86640728      -0.02866336      -0.60752786      -0.24851335      -1.58347325      -0.64663016      -1.67094352
O      -20.40761795      36.80739116      10.07551657       1.01813543       0.06235574       0.08590433       0.15469442      -2.48430933       0.40667341
O      -20.09540748      34.66288318      10.09390982      -1.56306465       0.91563951      -0.09788976      -0.06933627       0.63388941      -1.56719311
O      -20.02086089      32.05479254     -13.19537221      -1.26882204       1.14783693       1.22906700      -0.47410932      -1.87539194      -0.92087307
O      -19.48706286      33.15427808      15.99716339      -0.41714599       0.22240289      -0.61689958       0.21464276      -0.03208426       0.59983855
O      -20.06326896      38.56271562      15.61418643      -0.88241981      -1.57605221      -0.28710218       0.81498556       0.11912003       1.13348764
O      -21.94611959      38.55874395      14.56609776       0.65907281       1.56375791      -0.81321350       1.34642156      -0.75353544       0.35029775
H      -20.88636558      38.66789154      12.75812948      -0.10178420      -0.24032050      -0.13351629       1.14686177      -0.09718466      -1.58744412
H      -20.28364683      37.99613129      11.14030611       0.00489098      -0.19143000      -0.06076963      -0.38149105       0.47993583       2.16980364
H      -20.28588732      32.34487913      12.51372497       0.09414806       0.03900387       0.31611010       0.31897606       0.06461849      -0.07021490
H      -20.01370969      33.27067185      11.00413608       0.18659352      -0.07288342      -0.10501820      -0.17665160      -0.63573693       0.75250696
H      -20.43735995      36.41011663      16.74043455      -0.13679538       0.24174009       0.33059192       0.50204950      -1.80495477      -0.80817874
H      -20.22854933      34.71391053     -10.67454388      -0.10459672      -0.02386936      -0.16029236       0.10317988      -1.52606603       0.32317793
C      -17.47518371      28.76840471      14.65750848       0.34477949      -0.82867192       0.51676493       0.19207658      -0.98207263       0.08468458
C      -17.03860123      29.93333804      15.43015197      -0.01982197       0.28761391       0.83122669       0.20596000      -2.50577940      -0.96625716
C      -17.30662705      28.79093463      13.19218252      -0.27164645      -0.00570070       0.98756408      -0.16241973      -0.28941855       0.41803392
N      -17.94403051      27.63455532      15.21403205      -0.58436091       1.19901553       0.37236030       1.09563476       1.37557579      -1.51082022
C      -16.89771557      31.07671156      14.67921934      -0.05844097       0.02334981      -1.00371219      -0.49725720       4.22112541       0.77501918
N      -16.80022558      29.96248155      16.90030819       0.97941739       0.89801215       1.39057038      -0.71240952       0.54602293      -3.42471055
C      -17.18600937      31.16941104      13.30648818       0.16413543      -0.34339745      -0.29205459       0.67669717      -1.48302127      -2.25711141
N      -16.66239043      32.25706126      15.33033060      -0.34622041      -0.71200263       0.73416560       1.13413178      -5.46023412       2.45895203
C      -17.14445880      29.98399003      12.45867621      -0.66070950       0.44220244      -0.15560953       0.08169394       0.42353995       0.51188745
N      -17.15593593      32.42069935      12.64868824      -0.33764171      -0.19985046       0.23637865       0.58512937      -0.83295704      -1.37535086
N      -17.02791818      29.91030691      11.11828223      -0.84486513      -0.54949541      -0.10217853      -0.00511560       1.55308564       0.79900742
N      -17.60863061      27.62626929      12.35355821       0.17882048       0.78802920      -0.27470035      -1.52569218      -0.43395886       3.47906844
O      -15.95111824      30.69996833      17.35382618      -0.46513401      -1.12511331      -0.89780836       0.77532232       0.33954328       0.36160078
O      -17.53682874      29.29135117      17.55015386       1.21892516       0.16643309       0.35247719      -1.16875541      -1.84164862       1.64612758
O      -17.45318154      33.42849263      13.25433639      -0.37350238      -0.60079542      -0.05698159       0.07986078       1.03084668      -0.02937564
O      -16.84925549      32.42937651      11.44105708       0.46591837       1.44427472       0.09737870      -0.40574194       0.73451809       0.79589365
O      -17.18946572      27.47268128      11.25796128       0.19262850       0.94205616       0.23432565       1.24477151      -0.50878398      -2.14479307
O      -18.37698081      26.77994671      12.85914521       1.32381755      -1.26904966       0.87340840       0.23848299      -0.12691567      -0.16146720
H      -18.08770239      26.87080429      14.48022381      -0.03075888       0.08991197       0.31228541      -0.32048450       0.91801300       2.25178950
H      -17.92209960      27.65898276      16.22573123       0.07228419       0.10971529      -0.24014097      -0.25617477      -0.84019448      -0.23826689
H      -16.77033607      33.08098823      14.91157641       0.31097569      -0.01847515       0.11515740      -0.28349343       3.63793882      -1.62527183