999
Lattice="23.05905723004297 2.178688198692873 0.04510694143340141 0.0 21.44185363306826 -0.19454280245974165 0.0 0.0 21.58244061146205" Properties=species:S:1:pos:R:3:momenta:R:3:forces:R:3 energy=-4891.740395640088 free_energy=-4891.740395640088 stress="0.002495552343193238 -0.0006346186502075787 -0.00121919416515365 -0.0006346186502075787 0.0008837036761269778 0.00018793619535381132 -0.00121919416515365 0.00018793619535381132 0.0010077859616006856" pbc="T T T"
O        5.90604406      13.13764440      16.28277303       0.65244552      -0.22885218       0.83708784       1.83118763      -0.56242052      -0.29659452
H        4.95227842      13.13225313      16.36553705       0.01319706       0.08441451      -0.11280406      -1.53375374       0.45880283       0.27278930
H        6.41776451      13.76460921      16.85052751      -0.14354525       0.14962532      -0.03646756      -0.26842467       0.24953180      -0.14064075
O        9.06269959       4.15361747      12.04207357       0.18764948      -0.48858963       0.16264692       0.02910516       0.58498392       0.08072425
H        8.92605409       4.74069664      11.25546733       0.18048118       0.07777545      -0.02868577      -0.15268084       0.39457751       0.01684593
H        9.35655387       3.31284668      11.60425654       0.04491726       0.22113123      -0.12789181      -0.21754374      -0.35257844      -0.10892627
O        4.46825426       1.81317378       5.46148543      -0.15789559       0.17848281      -0.33551629      -0.06389756      -0.82330472      -0.27016823
H        5.40490736       1.56966694       5.68618211      -0.15109996      -0.05935112       0.11719527      -0.12445952       0.28249290       0.56097835
H        4.10648108       0.87820500       5.27076165      -0.44571873       0.09068132       0.23875983       0.09712497       0.47599408       0.33746688
O        3.92327918       5.72933498      17.36540628       0.70934690      -0.38036921      -0.34028046       2.44535189      -0.35413192      -0.32671512
H        3.91428797       4.85405757      16.90981764      -0.06235581       0.00235032      -0.09959086       0.17274397      -0.39614730      -0.09882988
H        3.01854546       5.99613452      17.40841481       0.00321613       0.00802973      -0.31833073      -2.27708486       0.49667568       0.29894736
O        3.25342694       9.58170861       1.23097120       0.12214165      -0.96008848      -0.45220291      -1.49523553       0.06265245       0.38298786
H        3.76548744       9.76563917       2.06264030       0.05895510      -0.08391021      -0.26787782       0.11930120       0.45590660      -0.01566672
H        2.25164443       9.81549695       1.45609957       0.29656583      -0.03503987       0.06762758       1.41811906      -0.60880757      -0.48440892
O       12.34289779      21.39534413      11.45219637       0.62592975       0.07251006      -0.10683350      -0.87736583       0.99266734      -0.89236616
H       12.77225531      20.82838227      12.10211665      -0.10837766      -0.17011152      -0.05146707       0.39252122      -0.51866612       1.11095264
H       12.28387944      22.35861013      11.74776668       0.17041588       0.06502349      -0.19082686       0.55455488      -0.34170903       0.06726471
O       13.16493620      20.83652402       9.00493493      -0.61818678       0.44442205      -0.42496050       0.40700301      -0.18635307      -0.02877091
H       12.94157680      21.03322753       9.97499500       0.13924284      -0.05776726      -0.08581977      -0.19165648       0.19164469      -0.67772039
H       12.39770530      21.11372794       8.46093543      -0.02517380       0.40669713       0.09955660      -0.16987123       0.27787638       0.30355997
O        5.42923047      16.01230078      13.03257370       0.20412289       0.08637188      -0.88395854       0.36418831       1.02036591      -0.21432727
H        4.87536465      15.20126532      13.05657615      -0.26731754      -0.28271480      -0.22734471      -0.24172164      -1.04414538      -0.26058290
H        4.83818716      16.67437273      13.44915530       0.13669657      -0.19348810       0.20888550      -0.12921779       0.55885825       0.54469551
O        0.01936063      13.36770965      19.53465278       0.63568115      -0.16601335      -0.05033488       0.78618426       1.24719089       1.02442407
H       -0.60791408      13.06205258      18.88494113      -0.03754778      -0.27979798       0.18367285      -1.24730977      -1.27754468      -1.31903265
H       -0.28263708      14.31875803      -1.97555315      -0.13532997       0.05744495       0.17270837       0.18226895      -0.02837535      -0.08949064
O        3.53966966      13.20777212       6.24649846       0.13063751       0.72068542       0.63408330      -1.00269074       0.13268155       0.31327301
H        2.51939960      13.21515965       6.33197201       0.00383791      -0.03832651      -0.03432916       1.33368704       0.35706320       0.21455307
H        3.87787560      14.16240644       6.18641480       0.02930835      -0.02087227       0.15375692      -0.41985976      -0.57641227       0.01875410
O       22.39941935      19.78051995       8.56064592      -1.14763509       0.99437502      -0.50104667       0.26657824      -1.13331940      -0.01928577
H       23.24134994      20.13332248       8.98779928      -0.15633269      -0.01783953       0.02104344      -0.25474876       0.18657144      -0.52811792
H       22.68922183      18.96037523       8.01326104      -0.22882389       0.04383244       0.17885067      -0.24511547       0.84415000       0.32174835
O        8.49220310      16.03533268       6.98977858       0.12173604      -0.66174004      -0.34592661      -0.44230127      -1.33793723       1.42030961
H        9.44128520      15.88520530       7.27133145      -0.04659897      -0.06135067       0.21208453       0.45757056       0.54247516      -0.60326460
H        8.01918845      15.64105223       7.81972471       0.12746473      -0.23953126       0.08120439      -0.23574558       0.49908219      -0.93374146
O        8.00326609       5.32068110       5.57182409      -0.05122007      -0.03835686       1.56205263      -1.30928197      -0.22059803       0.52931252
H        8.79496330       5.86409263       5.56669071      -0.22812591      -0.11859355      -0.08307973       1.27671714       1.15888660       0.13059367
H        8.19084811       4.58189172       4.99337207       0.08326258       0.06964604       0.12825608       0.06817228      -1.05549646      -1.03379367
O        6.29192342      18.12362165       1.01572716       0.44579304      -1.12767834       0.83391062      -1.72398461      -0.67893329      -0.30521343
H        6.67921112      17.71963152       0.15285091       0.18382706       0.18620127       0.17896685      -0.06727609       0.15165823       0.34529425
H        5.34596400      17.77247081       1.05172472       0.04249316      -0.15423712       0.16455194       1.38102006       0.55741583      -0.00276497
O       17.65166134      13.66741742      12.15776428      -0.43209428       0.31897203      -0.93197690      -0.28034971       0.08027823      -0.13475731
H       18.45697474      13.58976363      12.68291598       0.11163515      -0.11959201      -0.17830026       0.74255983      -0.69629570       1.12200555
H       18.00491830      14.26372786      11.45167099      -0.22552555      -0.03470289      -0.11475987      -0.46990384       0.38134204      -0.88887178
O       10.08057734      10.16007637      12.37911884       1.01750606       0.38202340      -1.78771753       0.43620606       0.56518198       0.41499757
H        9.34889097       9.55421079      12.17512515      -0.23583483       0.08032345      -0.12244094      -0.28617620      -0.22926372      -0.23388819
H        9.92364819      10.58041767      13.30330427       0.00639311      -0.06528591       0.12644845      -0.16337743      -0.38167519      -0.65864909
O       15.83577218      20.93520792      12.11009862      -0.75735902      -1.11981283      -0.37230713       1.64883397       1.16672513       2.03910525
H       15.05220603      20.40015985      12.17219010       0.05189509      -0.05451563      -0.17490092      -1.32467217      -0.78409044       0.32727574
H       16.04829370      21.29179221      13.06908661      -0.19880780      -0.02263910      -0.19183917      -0.33714929      -0.40312318      -1.29064846
O       12.46701884      15.00326976      15.98818987       0.97603447       0.35056243      -0.12417228      -1.72446964      -0.49580873      -0.94673216
H       11.60154794      15.51628625      16.05355574       0.14123141      -0.00520294       0.00886557       0.26612579      -0.39535753       0.04447363
H       13.03385628      15.43743925      16.63321365      -0.01106545       0.17943368      -0.26756220       1.24229974       0.69326339       0.97452165
O       21.82654463       8.46827655      14.80566773       0.34683788       0.69408699       0.59731209      -0.12163976      -0.41614695       0.53744408
H       21.76845138       8.54988708      15.79711115      -0.15626333      -0.13613161       0.22580735       0.22970431      -0.85643478      -0.34781591
H       21.65996322       9.36946704      14.48477581       0.11746023      -0.02900235       0.09814251       0.18802286       1.03873774      -0.53014271
O       12.56997281       0.52752112      16.60509191      -0.79208999       0.39301793      -0.40356671      -0.03963886      -0.29628039      -0.80704305
H       13.21625655      21.92237758      17.13851545       0.27110483      -0.02886134      -0.25372092       0.14835408       0.71985135       0.83825135
H       12.85144233       1.33515115      16.07786982      -0.15592318      -0.00451032      -0.11555198      -0.34376799      -0.36885233      -0.07731892
O        0.84886358      20.06203484       2.60647855       0.38886506       0.70280448       0.33930782      -2.10421014       1.01755575       2.39951894
H        0.66650201      21.06353840       2.64447315       0.03909147      -0.38249801       0.01163842       0.36734663      -0.27345894      -0.47802277
H        0.42209392      -1.59517252       3.74605153       0.23085005       0.23539245       0.02520578       0.95103980      -0.78799797      -1.56030403
O       13.46997114      19.40084159      13.03369675       1.73772002       0.32174532       0.43739966      -0.05699652      -0.42581500       0.63805580
H       13.44644948      19.19072746      14.04060709      -0.15943023       0.05868607      -0.04557245       0.09548019       0.67494337      -0.97176753
H       12.92152048      18.69369888      12.60380173       0.10840408       0.09008306       0.02441017      -0.09252992      -0.10714746       0.36540996
O        4.51018920      19.61989188      16.30734139      -0.02006120       0.09080739       0.48631616       0.64994730       0.14212419      -0.77037138
H        5.23050422      19.88024340      15.63977216       0.16766239      -0.06172338      -0.13921736      -1.16162382       0.28184043       0.70671233
H        3.95662475      20.42484211      16.52886949       0.27472620       0.14973256      -0.02406766       0.30712192      -0.51545213      -0.21941163
O        5.19995095       6.97541045      19.35294384       0.93976801       0.22872088      -0.32251433      -1.62125115       0.00145878       0.31562172
H        4.87945714       6.36232140      18.62815772      -0.05794350       0.16046689      -0.21021958       0.35196030      -0.06991437       0.13082225
H        6.17457605       7.13610671      19.44886359       0.24645023       0.32153520       0.10245924       0.69285794      -0.12788850      -0.43981146
O       12.64948245       2.53501111      12.34082990       0.17702402      -0.36017197      -0.81866692       1.14788178      -0.77714141      -0.61458232
H       12.14163255       3.34257849      12.50138367      -0.01327627       0.03635328       0.11082213      -0.50321203       1.00685949      -0.02267908
H       13.51346016       2.77216504      11.84211947       0.12339462       0.01208309       0.04276238      -0.50849437      -0.20389154       0.35951565
O       19.90661381      23.12410086      12.32612931      -0.39266211      -0.81163770      -0.03473025       2.10276288       1.30492337      -0.56532383
H       20.39595232      22.26488106      12.27945083       0.10355277       0.26073042       0.10191615      -0.51430404      -0.27104347       0.15719146
H       20.70977942      23.81896985      12.25602374       0.05477504       0.02447358       0.11478750      -1.63234376      -0.85526284       0.20428388
O        5.71646214      12.92345544       2.46208666       0.41314223      -0.13907162      -0.94793117       0.07827151      -0.38675305      -0.52072925
H        5.65652882      13.87315954       2.73128226      -0.12639482       0.04381873      -0.40057332      -0.16853534       0.20572538       0.23782613
H        5.50194554      12.85485475       1.49086338       0.22664641      -0.00471431      -0.04469520       0.35879034       0.05481956       0.38421849
O        5.65977864      12.51428849      21.19346642      -1.12483389       0.56863959      -0.25157531       1.32157939       3.79555170      -0.26046825
H        5.00192345      11.90597337      20.98665290       0.05881764      -0.03976882      -0.14046227      -2.65842051      -3.19930760      -0.60275756
H        5.18690461      13.32226736      20.73340726      -0.07487310      -0.12834512      -0.07788053       0.80423651      -0.33032941       1.05752767
O       14.13712528      16.28393495      17.78179379       0.05471635       0.28735344      -0.94828079       0.73682891      -4.09254066       0.43321581
H       13.93964474      17.21025739      17.84277038      -0.05909121      -0.07277036       0.10970413      -0.92502013       1.98510566       0.81136269
H       13.83711338      15.72283255      18.59770228       0.07202580       0.03976872      -0.05888590       0.42280560       1.09449335      -1.18839790
O       16.47623491      15.60201996       1.94886791       1.21598806       0.18738095       0.32835214      -0.02620010       0.13203862       1.87369382
H       17.01333873      15.21690719       2.77518513      -0.05848348      -0.03878650      -0.11978883      -0.38352459       0.66070794      -1.21481399
H       15.76992221      16.08262608       2.46810689      -0.12852563      -0.25255363      -0.09566220       0.08206746      -0.44344648      -0.57258601
O        9.65160916      22.27419491      20.14558205       0.04541709      -0.04421033      -0.74024493      -0.59454564      -0.08513074       0.77560534
H        9.49977239      21.89420851      21.10016537       0.26017846       0.24011310       0.14166058      -0.07059518       0.79875840      -1.14604444
H        9.04106443      23.03331595      19.92315716      -0.12210974       0.42837163       0.13385129      -0.10691601      -0.23744884       0.41087585
O       10.61564653       7.90271402       1.91569274      -0.27152989      -0.24452073       0.86734055      -0.95323411      -1.56274926       1.54916221
H       11.09593226       8.33086426       1.22577378       0.11258468       0.00389783      -0.06287345       1.03114509       1.32719203      -1.55555823
H       11.18934823       7.74093013       2.70778400       0.01002324      -0.05283101       0.00991357       0.30782661       0.17845020       0.15554366
O        8.71371506       9.32969504       6.02384900       1.12436351      -0.98735336       0.01445257      -0.11230173      -1.48737185       0.31121021
H        9.33047230       8.51910601       6.08560330       0.21584810      -0.31126740      -0.10919987      -0.61983799       0.08989201      -0.10139118
H        9.33704214      10.03847487       5.85050882      -0.01080289       0.23942061       0.24945547       0.37778606       1.28642362      -0.57177224
O        1.30063580       5.62743965      13.69638691       1.22814264      -0.44567128      -0.68021618      -2.40695424      -0.80265033      -0.33193225
H        1.62043659       6.45893062      14.02865498       0.04513191       0.07326432       0.09566726       1.12961648       1.61869823       0.69982979
H        0.30722811       5.69316998      13.97439950      -0.15570543      -0.15252099       0.04472057       1.21784361      -0.15849503      -0.26739269
O       13.66149737      20.12989373       5.37814299       0.16623113       0.17002311      -0.36087346      -3.03893831       2.49056957       0.54081734
H       13.89666706      21.02494295       5.82625289      -0.01783264       0.10530780       0.17078852      -0.05378929      -1.12884266      -0.31808133
H       14.44405108      19.63713610       5.36309951       0.02448901       0.00637550       0.23789575       2.99101118      -2.02577039      -0.23155469
O        2.56163864       2.88381903      28.51469232      -0.59735789       0.55271149       0.51438230      -1.44263030       1.60896694       1.10808134
H       24.86729025       4.49484043      28.82291049       0.01263962       0.05146729       0.01538573      -0.12880118      -0.40889489       0.21091335
H        3.29718719       2.38479140      28.17361276      -0.08741610       0.20279689       0.03628599       1.53824225      -1.15615731      -0.67716121
O        9.41775948      19.31886909       9.57033769      -0.18207112       0.17255880       0.02034211      -0.44748491       1.13948454      -0.41711064
H        9.54216206      20.08518787      10.24237253       0.14444205       0.05547893      -0.04278672       0.04594479      -1.16344233      -0.16757355
H       10.00116528      18.55197865       9.74904408       0.07351746      -0.11321360       0.01594940       0.14106887      -0.15732407       0.42449441
O       16.07782813      13.67617732       5.90539214       0.73305594       0.02647433      -0.17150418       0.60781263      -0.31535519       0.21899916
H       16.06271708      14.10425903       6.79768843       0.18163889      -0.03715619      -0.00642801       0.13371068       0.00092068       0.07841323
H       15.17782307      13.76298892       5.51599464       0.28881792       0.13716236      -0.17322368      -0.41244990       0.15291379      -0.32890944
O       16.26165706      21.62820200       3.20401510      -0.01301267      -0.02070246      -0.40482505       0.00096798       0.33183916      -2.68932733
H       15.28946248      21.51482037       3.15666849       0.16396964      -0.09088955       0.16012234      -0.68582252      -0.10371639      -0.20099311
H       16.49930355      21.60734282       4.11546466      -0.11630074      -0.17262784       0.13231007       0.78049068       0.02526430       2.22653951
O        6.81345543       2.47324296       9.29282144       0.31988114      -0.60987792      -0.12331588       0.64464034      -0.10693611      -0.49158074
H        6.10518265       2.47266370      10.00059993      -0.24854789       0.06194699       0.24986100       0.04814825       0.48845124      -0.28152245
H        6.95193769       3.34210781       8.77765186       0.02340249       0.01416344       0.12113607      -0.68085152      -0.29370191       0.71684844
O        9.66963426      17.40658580      13.99467288      -0.24680388      -1.29150151       0.40444135      -0.88981274       0.56320406       1.26948550
H       10.45719204      17.24854868      13.41939824      -0.02324271       0.39786495       0.14758619       0.37679399       0.04445576      -0.52842800
H        8.91238950      16.83282350      13.67972090      -0.09463627      -0.20282838      -0.42097918       0.29988532      -0.22375619      -0.22556378
O       23.12902870      18.92606032      21.88325252       0.34450138       0.70896686       0.89777681       1.89267203      -0.49695187      -0.05985820
H       22.72710891      18.42653127      22.64949928      -0.06599518       0.12221033      -0.12622571       0.73191831       0.34516268      -0.68491151
H       24.22354436      18.83781452      21.80796396       0.33611613      -0.10276280      -0.08108642      -2.44322203      -0.25736451       0.67197096
O       21.02273377       3.81724142       6.64835885      -0.54532302      -0.64896328      -0.73229981       0.19914832      -3.36074484       0.57607236
H       21.07985556       4.67555154       6.28847806      -0.11824352      -0.23930267       0.21914305       0.30297992       3.50088376      -1.46967429
H       20.26599769       3.88170696       7.23890982       0.02579608      -0.10851648       0.00837441      -0.61864286       0.11613794       1.28998515
O       19.12886274       4.33989178      16.26391076      -0.08421189       1.04058744       0.57789366      -0.68886216      -0.36313350       0.15927334
H       18.97768602       4.01151177      17.17988434      -0.10816318       0.11003018      -0.25675865      -0.25680511       0.15655688       0.06476108
H       18.15348240       4.55521121      15.97976725       0.21512613       0.01750859       0.07930084       0.88806792       0.25822471      -0.12198430
O        1.29264879      20.49753516       6.72545294      -0.18400262       0.19830379      -0.05541549       0.05676006      -0.96616497       0.18457946
H        0.79084797      21.24297394       7.16635998      -0.11644284       0.17736700       0.07520326       0.19759712       0.55957780      -0.38668956
H        2.04616095      20.82300028       6.19148603       0.21031610       0.05686738      -0.09488184       0.21433418       0.21685190       0.03657779
O        3.31955933      16.66231980       8.88031406       0.40996713      -0.15245367      -0.50561690       0.76355244       0.32062958       0.44158200
H        4.09636863      16.85570966       9.52379580      -0.21332200       0.20598588       0.15909455      -0.32141246      -0.05801029      -0.65918821
H        2.95540284      15.85325416       9.32975394       0.09853389       0.15076566      -0.00354365      -0.32324989      -0.00416046       0.04442796
O        7.20728141      15.17078163       9.23031948      -0.56631545      -1.37996436      -0.19394522       0.68949162      -0.17692840       0.63242041
H        6.59839583      15.76339512       9.75406661       0.07020231      -0.11447520       0.29339123      -0.14895820       0.11896419      -0.42962130
H        8.02095159      15.08233172       9.86844858       0.08635297      -0.05128594      -0.15916423      -0.50834168      -0.15882234      -0.54674783
O       15.16462033       3.75640283      19.55008634      -0.41198701       0.19573427      -0.44269366       0.81943724      -2.13616857      -0.50035618
H       14.94662012       4.64008151      19.27938498       0.02027300       0.15560287      -0.07673054      -0.61965320       2.15868991      -0.78558778
H       15.04164124       3.80230765      20.49823740      -0.07341435      -0.31662263       0.13818031       0.16056790      -0.22341635       1.29456545
O       13.70889842      18.28930669       9.44910398       0.04373524       0.15148822      -0.26054846       0.11700173      -1.51014370      -0.05372830
H       13.00568611      17.56985233       9.34352559      -0.15245706      -0.19853966       0.05180723       0.70659067       1.50370507       0.00118979
H       13.49061074      19.19552330       9.08094560       0.18066205       0.13472640      -0.05084355      -0.68328404       0.00911690       0.16457565
O        8.27406502       7.10483893      16.89784369      -0.83103314      -0.72270194      -1.38220298      -1.67932628       0.35779818      -0.32089384
H        7.60942991       6.58676592      16.31542537      -0.04271778      -0.00898524       0.04022774       1.12040483       0.35095594       0.43367991
H        9.25110379       6.96181790      16.80076069       0.08000328      -0.15548714      -0.18934993       0.20631348      -0.47039839      -0.48151316
O        1.77720886      18.78560449       8.97698844       0.57117573      -0.15982994       0.05731006       0.86335954      -2.21041426       1.18742415
H        2.44324391      17.94314090       8.83294594      -0.00394344      -0.01401716       0.06600463      -0.92268604       1.19717407       0.08159607
H        1.78521474      19.43488632       8.27476855      -0.00328196      -0.01705359       0.25447509       0.10119449       0.55090413      -1.42440904
O       20.68390930       6.60620118       3.20418303       1.09231833      -1.01086076      -0.06359283      -0.07976103       1.59951643       0.13512067
H       20.78194027       6.56939340       4.21744878       0.10435235      -0.03525815      -0.10966835       0.06387343      -0.34666675      -0.20206599
H       20.89642220       7.58026541       2.96416291      -0.06092751       0.52640818       0.07685426      -0.30402954      -1.04676248       0.13978845
O        6.85530538       8.77063801       3.97453229      -0.66789168       0.11512491      -0.78969901      -2.11358986       0.71471835      -0.79941261
H        6.08682241       9.49645922       3.88633270       0.16567782       0.04231116      -0.09841200       1.43146461      -0.84139597       0.12951728
H        7.58228571       9.00390339       4.57566653      -0.07205260      -0.16281788       0.22096772       0.21036348       0.67885044       0.82604931
O        9.39096459      19.54740809       6.71704097      -0.34326823       0.03775255       0.54296529       0.41847924       0.21029384       0.03144553
H        9.56809752      19.50569561       7.67202839       0.05626455      -0.32277849       0.01243485       0.28044983       0.41610412       1.22894910
H        8.54921807      19.07386297       6.70494964       0.03866750      -0.15173180      -0.25614350      -1.05772370      -0.60493546      -0.90506766
O       17.11710178      12.52767999      17.70803092      -0.08424398       1.03070108       0.98375261      -0.55533449      -0.33054451       0.50555456
H       16.23042814      12.14793129      18.01374362       0.01421768      -0.14575742       0.29997363       0.58445010       0.56488578      -0.08575250
H       17.07133533      13.50962140      17.77035474       0.05064302       0.07769181       0.12646553      -0.34519179       0.22837265      -0.08276965
O        1.35324884      16.25264998       4.77809594      -1.22563054       0.05218799      -0.55071706      -0.10230396      -0.20209164       0.07332632
H        0.62428706      16.03668732       5.45783300       0.06115869       0.11140683       0.21521876       0.53244722      -0.24942459       0.04582133
H        2.20479362      15.98141240       5.20561047      -0.10446090      -0.20247983       0.01759650      -0.31355351       0.19592549       0.11041704
O        8.00322334      15.57986235      13.11042910       0.16125586       0.29786660      -0.35608498      -0.82331995       0.74391622       0.34916386
H        7.03502776      15.92416991      13.06613947       0.14816426      -0.00169470       0.06612066       0.55847132      -0.45702650      -0.04182771
H        7.93014721      14.86124641      13.79546021       0.02232846       0.08740995      -0.10526565       0.22938911      -0.19460802      -0.46878066
O       11.11053415      14.02995041      20.83493300       0.70987144       0.19479014      -0.82569976      -0.77994355      -0.07082197      -1.23270679
H       10.67501295      13.68585783      19.96821810      -0.11179613      -0.00582554      -0.22767496       0.03269778       0.45780450       0.91209720
H       10.59918036      13.55586779      -0.03832984      -0.06788864      -0.05115582       0.10496173       0.69061083       0.15570079       0.14795245
O       22.04456750      10.35543107      10.58644581      -0.40527351       0.40462561       0.55392236       1.54559853      -0.18926732       0.87353232
H       21.27076475      10.75033622      10.19867523       0.02662461      -0.02460251       0.06373185      -1.22149855       0.68670169      -0.84131651
H       22.76141639      11.07906909      10.60901867       0.18319395      -0.09951662       0.13701022      -0.48733086      -0.41250036      -0.01801431
O       14.44285251      10.87862846      12.37822629       0.20728991       0.26383047       0.00780392      -0.21642774      -0.61203428       1.10341146
H       15.26542094      10.89679383      11.82864472      -0.15477248      -0.19442450      -0.15513731       0.60832651       0.14943355       0.19865530
H       14.73296162      10.64349309      13.34298017       0.08394062       0.06897267      -0.09793097      -0.18234580       0.64477369      -1.16033258
O       24.83885433      10.81905171      17.18707573       0.71423207       1.11880916       0.44585640      -1.51918794      -0.75019226      -1.20503270
H       25.64833092      11.13900989      17.56875522      -0.03318388       0.15566903       0.17906115       2.44270536       0.36628832       1.38909623
H       24.28160370      11.59291993      17.23258607      -0.12642363      -0.08899960      -0.12670265      -0.93193741       0.61878530      -0.03955441
O        1.17806637      20.75361601      19.86164145       0.53479622      -0.60834192      -0.72241926      -1.81164303      -1.72283699       1.32806786
H        0.49293471      20.23787071      20.53212959      -0.08381051      -0.24917645       0.01452140       1.24407324       1.48389542      -0.65648801
H        1.66552825      19.90250087      19.67295547       0.27940288      -0.11556115      -0.01623957       0.68468111       0.24275139      -0.10356757
O       22.81833947      17.68941878       6.85784291      -0.33878567       0.11065550       0.31075213       1.12839314      -0.32201015      -0.13894292
H       21.84706981      17.49774477       6.81666277       0.13515431      -0.26808588      -0.11526623      -0.57492652      -0.37469505       0.11144035
H       23.24066860      16.75870203       6.94708393      -0.47563989      -0.03726537       0.02183236      -0.20282858       0.68327067       0.05770300