999
Lattice="16.020758964075355 7.723855899840802 5.737588223118899 0.0 27.70147801409204 -11.370446472875853 0.0 0.0 20.58405426711512" Properties=species:S:1:pos:R:3:momenta:R:3:forces:R:3 energy=-156963.11268391815 free_energy=-156963.11268391815 stress="-0.003719409448421897 0.0024303437538815524 0.0027583848477473866 0.0024303437538815524 0.008247738570359547 0.00036539608477895435 0.0027583848477473866 0.00036539608477895435 -0.00047082498485683097" pbc="T T T"
O       -3.34142801      19.03235894      14.87327588      -0.09666772       1.00385183       1.39678254      -1.61565275      -0.70420707      -0.36061220
H       -3.57642481      18.05603691      14.75673643      -0.04283703      -0.12770726      -0.14882078       0.25738828       1.12836763       0.31251473
H       -2.41173641      19.06893739      15.06213480       0.01718907      -0.07737730       0.07260897       1.27104145      -0.06433031       0.37338556
O      -15.14911079      13.84864411     -11.39590907      -0.30207390      -0.77501592       0.98013231      -0.16838632      -0.47310560      -0.66532045
H      -15.30942387      14.18802162     -10.50766291       0.19748291      -0.32807865       0.00231253       0.12930798       0.24583882       0.38577859
H      -15.65298524      12.99535389     -11.42950663       0.05693775      -0.04410882       0.14962874       0.39907879       0.45359522       0.26446316
O       18.70277414      11.14465620       9.38764832      -0.15511068       0.01829986      -0.55074296       1.51104733       0.56349866      -0.74390854
H       18.03826844      11.59793380       8.84829835       0.06183294      -0.02470302      -0.10228256      -0.75912909       0.02495765       0.24512369
H       19.53314573      11.29883645       8.85207934       0.10576633       0.08211780       0.01334695      -0.63831955      -0.65491995       0.72442337
O       -3.91334210      -4.75287041      10.68975348       1.46469976      -0.12543153      -1.37390938      -0.73805947      -0.31637722       0.03368157
H       -4.39487269      -5.56125698      10.41467483      -0.22137367      -0.12070487       0.09983369      -0.09569574       0.26544380       0.33806587
H       -3.02379212      -4.96112350      10.38535511       0.04476481      -0.03689167       0.09590074       0.22002829       0.07007502      -0.00189261
O        2.18306690       7.46494402       4.00595024       0.58829860       0.39726846       0.00766177      -0.06694616       0.22991400       0.30305491
H        2.36355889       7.14958558       3.11563475      -0.14024469       0.09377321       0.16468494       0.39722362      -0.31864968      -0.83311583
H        2.33495449       6.71601601       4.59653039       0.08812725      -0.11533274       0.08470533       0.29207704      -0.28710347       0.22283073
O       -0.01148835      50.90125843     -10.41344109       1.27054589       0.88578157      -0.17939449       0.26602361      -1.84840063       1.03990088
H       -0.10550498      50.45560581      -9.51215777       0.11576261       0.22312938      -0.01099128       0.37654453       0.77451014      -1.24117556
H       -0.43551660      51.73712078     -10.28418034      -0.24899482       0.18786273      -0.12859248      -0.75655599       1.38095091       0.20383780
O       17.29808568      44.50953238      -5.55313314      -1.30370822       0.79439409       1.05746426      -0.35959878      -0.36368529       0.83213495
H       17.53100437      43.73348805      -5.01081112      -0.07594922       0.15470599      -0.02672195       0.57970625      -0.25397176      -0.41208234
H       16.38855356      44.64187050      -5.22920566      -0.01166397       0.02473429       0.25469144      -0.15019168       0.59678938      -0.47346866
O       -1.47099468      21.60327280      19.36890062       0.90325319      -0.16128977       0.18569892      -0.20418636       0.19179526       0.51269575
H       -1.14887767      22.37891172      19.86145886       0.03618704       0.06775278       0.17012021       0.11495779       0.02234191      -0.22333678
H       -1.68463182      21.85188195      18.43217778      -0.05851876       0.00479384       0.02215658       0.68225932       0.18741214      -0.15008134
O        5.16987022       7.43415313      18.35594618      -0.14694014      -0.83806019       0.21011213       0.37704502       2.69272285       0.75871000
H        5.57261181       6.62450695      18.12039808      -0.11371557       0.00153608      -0.18081398       0.82788666      -1.67820764      -0.57466724
H        5.94721452       8.10378230      -2.11226105      -0.05977134       0.17647543       0.04410195      -1.56390087      -0.94860779      -0.21829403
O       15.84012669      28.04841973      -6.74714830       0.05741481      -0.14598561      -0.35779451       1.85212912      -1.25310069      -2.78547446
H       16.66832634      27.41672340      -6.94144889      -0.06927425       0.00527300      -0.00558371      -1.78420627       1.21906512       1.14207689
H       15.57404274      28.04489889      -5.83672103       0.15222350       0.47930327       0.01036133      -0.07268877       0.05871644       1.30083660
O        7.39722850      22.87849355      21.92714449      -0.37207808      -0.10895214      -0.02270221       0.21213028       1.68249964      -1.61420690
H        7.67661380      22.19533888      21.28339177       0.10543115      -0.07505722       0.18974057       0.20846941      -0.23872485      -0.67856321
H        7.33057398      22.38827296      22.71528871       0.01217492       0.03463345      -0.03833968      -0.32497645      -1.11665308       2.50531761
O       15.90268937      26.11544225      18.27842282       0.38870301       0.76917590      -0.33172405      -0.67783383      -0.12969258      -0.54751627
H       14.98007490      26.10012231      17.93314450       0.00114357       0.22992479       0.08133979       0.26821965       0.26220915       0.31149105
H       16.36287179      25.43965258      17.73585111       0.02342585       0.18683485      -0.05202190       0.18712498      -0.02979561       0.49338232
O        3.61078711       1.68767245       5.55401780       0.05579973      -0.97459741      -0.31673857       0.09200032      -1.02658678       0.17397420
H        4.10634785       1.03849133       5.00477189      -0.02402888      -0.01884891       0.08921483       0.15889007       0.43346706       0.06015913
H        3.08225995       2.13984136       4.88553344       0.10279465      -0.19755614       0.07367166      -0.29516800       0.41691850      -0.17091520
O       -6.09630974      44.85143149      -8.93262509      -0.29291595      -0.25855554      -0.79113807      -0.45969740       1.87768235       0.56903209
H       -6.36188726      45.27849953      -9.77606534       0.25388064       0.11242561      -0.04573457       0.42384730      -0.36381351       0.37530569
H       -6.20586388      45.61117831      -8.23873537      -0.16069892      -0.19202573      -0.25825195       0.26438787      -1.54683904      -0.95755945
O       -2.59062638      19.02833990       7.40452524      -0.18932016       0.35825729       0.14843433       0.70216377       0.86017773       0.02062758
H       -2.32497344      18.08337103       7.40176927      -0.15488564      -0.17348126      -0.00637343       0.36208276      -0.15079380       0.28732194
H       -1.74033706      19.54464883       7.47125585      -0.06335112      -0.31802751      -0.08879541      -0.47146531      -0.49115237       0.14160480
O       31.54425043      13.58414448      34.57968115      -0.44235151       0.29958258      -0.21922674      -1.60301179       1.20770472       0.31195654
H       32.04415545      13.54521579      33.77620114       0.00138444       0.28616191      -0.36971001       1.04413147      -0.26368331      -1.17920166
H       30.56656132      13.57977567      34.32270714       0.03280252       0.01577129       0.05164383       0.46383744       0.01397317       0.63969058
O       14.81018950      46.68808395       7.96366303      -1.07651746       0.18432157      -1.24715125       1.99774392       0.75795998      -0.33207579
H       13.94616194      46.34229759       8.07529192       0.08576137       0.17408887       0.05816452      -1.74661446      -0.82651652      -0.22227558
H       15.46449123      46.20861882       8.59580856       0.33137721       0.18507483      -0.16914558      -0.40160546       0.35604930      -0.82274250
O        3.50231166      52.92801444      12.66844383       0.36073255      -0.62708150      -0.24076519       1.56117322       1.12501740       1.84653738
H        3.32244338      52.31623910      13.40321660       0.00713951      -0.10898097      -0.18697396      -0.53603004      -0.45776681      -0.06814860
H        3.02772783      52.65188016      11.91908105      -0.04641819       0.40754567      -0.23050967      -1.20088770      -0.98425673      -1.86052615
O       -1.63635427      21.93541149      16.81610356      -0.30709953      -1.32164459      -0.34753110       0.44074160       0.42501089       0.67401757
H       -2.45351471      22.37542900      16.36783990       0.05357114       0.27121282       0.09934473      -0.49229464       0.17189926      -0.62970012
H       -1.69895682      20.98191845      16.89035490      -0.25532684      -0.00618370       0.33908817      -0.19021126      -0.76481146      -0.35730710
O        8.29452771       8.45820989      10.08245818       0.12724755       0.52445197      -0.71375956       2.26755286      -0.70245195      -0.51356828
H        8.32498844      35.37716226      -1.90073642       0.01891620       0.01609559       0.08460458      -0.63297959       0.63812375       0.89331033
H        7.42665433       8.82400448      10.18324654      -0.24793480      -0.18525108      -0.17168225      -1.29056114       0.23653123      -0.16177520
O        9.57690291      30.96920216      -4.98085458       0.50965654      -0.17146543       0.11967513      -0.80932774      -0.22832333      -0.40595537
H        8.86387584      30.80857618      -5.64614709       0.12135850      -0.20037332       0.18935378       0.67724245       0.00189282       0.81376933
H       10.10634692       3.95931770       5.97381906      -0.14512060      -0.15786794       0.10936528       0.23518311       0.11162607      -0.28068518
O        7.12684433      47.23095089      -0.12881077      -0.11142106       0.27699638      -0.89415705       1.27649737       0.05807561       2.22855859
H        6.72919586      47.00778507      -0.96318560      -0.16526361       0.15645288      -0.17332236      -1.01819167       0.59544822      -1.21876139
H        7.12413007      48.20568516       0.08698408      -0.04189431       0.14141932      -0.15692276      -0.12424800      -0.73547683      -0.82458455
O      -22.29300366      33.33742819     -12.31415763      -0.38295823      -0.13813204      -0.61707659       0.70416159      -0.16391170      -0.25993089
H      -23.17436406      33.56843601     -11.90785822       0.23679488      -0.05532180      -0.12610469       1.20549449      -0.84303782      -0.19840382
H      -21.83542450      32.50631984     -11.98909573      -0.19950647      -0.06207618       0.17197859      -1.44381028       1.02108249       0.19267873
O       19.38121930      16.67996956      15.59941990      -0.31734203       0.09101532      -0.00576057      -0.27504855       0.28985740       0.88631392
H       19.13724951      17.59541479      15.36521491       0.23118485      -0.13648135      -0.20815492       0.40703878       0.13963230      -0.31539408
H       19.51716736      16.23473999      14.75678611       0.21100562      -0.20207438      -0.19268022       0.14176691      -0.34106601      -0.47770134
O       -0.94971335      -6.52230911      21.93615295      -0.17668379       0.58144944       0.72068855       1.31133517       0.16709921      -1.00789146
H       -0.06665019      -6.33164170      22.31975835       0.04996191      -0.01324067      -0.17994714      -0.21396248       0.20313919      -0.30469953
H       -1.50132815      -6.51668134      22.69340847      -0.01059867       0.05364749       0.06307549      -1.31586157      -0.30777910       1.55763500
O       13.08537816      32.54168940       0.65629287       0.54202627      -0.60559826      -0.11643628       1.48318777       2.52793277      -1.19940391
H       13.94217660      32.48776865       0.16125504      -0.05250669       0.39788648       0.15194432      -0.28532713      -0.04875341       0.36519034
H       15.59974173      18.97349421       1.23303428       0.06012444      -0.03023346       0.34142956      -0.02317006      -0.45224737      -0.09308409
O        1.01831653      43.91858341      -5.59527684      -0.79882675      -0.91572933       1.33232961      -1.99816624       1.25998366      -1.66159942
H        0.88200697      44.00782516      -4.63290945      -0.02421513       0.03779468       0.20388257       0.45766667      -0.25795175       0.18326207
H        0.31276567      44.51236904      -6.01364036      -0.11164231       0.13485754      -0.12464134       1.14034002      -1.37838600       0.44912987
O       -0.54302282      33.68079474      17.72441189       0.50873456      -0.54727733       1.61334751       0.42572762       1.76619064      -1.65025786
H       -0.28461309      32.93668207      18.20645086       0.07156524      -0.12678126      -0.13995731       0.33414830      -1.98319632       1.59080549
H       -1.39660264      34.03313391      17.97222061       0.13680769       0.05997094      -0.06921430      -0.47744902       0.11219310       0.44446308
O      -14.85677501      23.74617126      -7.95864920      -0.00999182      -0.66804847      -0.44439637       0.33191222      -0.07541176       0.11451835
H      -14.53604309      22.91274821      -7.56937951      -0.07378438      -0.20449678       0.12071209       0.21626847      -0.02116753      -0.18430009
H      -14.18774615      24.40355005      -7.68275434       0.24630816       0.17997282       0.14583870       0.04179198       0.21757524       0.01764861
O       -2.24381538      25.00763133      -2.35751745       0.46761642       0.28087785       0.23989252       0.85788203      -0.03880503      -0.08275820
H       -2.61484949      24.98394085      -3.25845522      -0.10229561      -0.09082920       0.07610560       0.31024102       0.22262694       0.35398346
H       -1.25549881      25.06791749      -2.46196129      -0.26315264      -0.05752374       0.05145694      -1.19359394      -0.10968763       0.28166881
O       12.29533810      48.26177388      14.11876634       0.24587195      -0.82423354       0.04711847       1.19978118      -2.05197303      -0.21470972
H       11.97859493      49.08124977      14.46048710      -0.12182091       0.11227570      -0.30243603      -0.79548594       2.01772230       0.81807717
H       12.42024013      47.66292402      14.88696722      -0.13936366       0.31155517      -0.05234173      -0.18100704       0.20191300      -0.38297681
O        5.21835228      15.29024887      -7.88185954       1.05654314       0.76951831      -0.64313238      -0.18318958       0.46076540      -0.58973952
H        5.28944449      16.27023837      -7.85652342      -0.06052072       0.05941719       0.39997512       0.06120691      -0.48381641       0.27260742
H        4.72005148      15.02726439      -7.08897802      -0.13268412      -0.01795170       0.29203404       0.19035007       0.18315617       0.44066071
O        0.63575736      28.74267030      -7.66533175       0.26493853       0.40559686       0.66255936      -0.81124123       0.60551164       0.18716663
H        0.49660327      29.48632977      -7.03196294      -0.25948987       0.01130029      -0.00383277       0.42590761      -0.42104087      -0.34762888
H       -0.28787197      28.51642156      -7.93939530       0.16019401      -0.11046371       0.18917380       0.44797601      -0.02767875       0.16843977
O       20.75048750       6.82608684      17.21020802       0.43696783       0.28097143       0.45390770       2.81316531      -0.64634999       1.34365924
H       21.47918523       6.89855961      17.91086569      -0.43944141      -0.10783518      -0.23104158      -1.04644884      -0.21830927      -1.19531376
H       19.85913746       6.97107279      17.64817225       0.00975257      -0.19142598       0.01867639      -0.95686998       0.43571074       0.37022945
O        1.87462648      18.76501388       7.55492316       0.03269704       0.42933981      -0.45710923       2.20319324      -0.09595921      -0.04966511
H        2.04971556      17.90653545       7.99950539       0.04710529       0.04706333      -0.08330076      -0.49338324       0.27063975      -0.26374812
H        2.80442054      19.12565186       7.34359572      -0.18645239       0.03932389       0.27056097      -1.79578273      -0.13073740       0.14072962
O       -4.33836450     -12.23319327      39.33838427       0.96351825       0.92469570      -0.45078702       0.07815623       0.17146863      -0.58105542
H       11.60243164      -4.49752763      44.04940463       0.02261006       0.04380110      -0.14212893      -0.08224318      -0.17097273       1.22998262
H       -4.13361280     -13.15507926      39.64245983      -0.04118388       0.17756746      -0.05000678      -0.39359405       0.26111560      -0.39486271
O        4.80762959      44.46810217      -3.53724678      -0.67988066      -0.64496988      -0.04504683       0.21691791       0.23787498       0.85235321
H        5.72202610      44.49163049      -3.87135793       0.20888762       0.00820498      -0.24263160       0.40990741      -0.08997666      -0.43130564
H        4.98298526      44.01810886      -2.68684298       0.13855028      -0.10529763       0.16256659      -0.80597100      -0.14069589      -0.11000932
O       13.12283366      31.20632823      -4.95013315      -0.58645628      -0.30589541       0.22713040       0.52567130       0.30952594      -1.19773143
H       13.22115115      31.34499790      -5.93621274      -0.07341172       0.16855264      -0.20628351      -0.12174180      -0.64330297       1.38432666
H       13.89639344      30.65288378      -4.72164980       0.15829797      -0.10227656       0.00741939      -0.37064627       0.10710696      -0.19194136
O       11.49100663      50.66016647      -5.89629757       0.10661174      -0.49761893       1.14665107      -0.22982493       0.49075111      -0.08264002
H       10.51445363      50.65283909      -5.75479472      -0.12725451       0.06328925       0.23003300       0.40413201      -0.12114249       0.11058962
H       11.90053713      51.19699788      -5.18015626      -0.10979426       0.03690030      -0.24786476      -0.23405913      -0.37048249      -0.13416204
O        8.48517567      -9.40261111       4.63852113       0.28463364       0.91135673       0.10867420       0.71176065      -0.09536732      -0.15455050
H        8.05587881      -9.41750753       3.78142866      -0.18358470       0.05067604      -0.25003383      -0.32390840       0.00429392      -0.25185081
H        7.83250912      -9.07973991       5.27402293       0.10682638      -0.03578479      -0.00364226      -0.44639919       0.12176640       0.38433217
O       16.90062469      28.30083151       5.68138412      -0.32371183       1.26750370      -1.27759942       1.56908219      -1.63795748       2.38650677
H       16.80366931      27.68343189       6.48565592      -0.02587235       0.05553395      -0.05526868       0.46835270       1.15887939      -1.18971986
H       16.03054822      28.58943592       5.49740843      -0.29547304      -0.31478980       0.25670822      -1.66008345       0.68845448      -0.70150367
O        7.66236365      11.86153485       6.09675127       0.89370129       0.56592545       0.76464804      -0.38991870       0.88165944       0.16288826
H        7.91441401      11.24159691       5.38854876       0.14578809      -0.01632258      -0.00870286       0.14731566       0.23642133      -0.35726079
H        7.28650640      12.69404630       5.69389163      -0.02393849      -0.25061176       0.12527099       0.47617737      -1.03040514       0.02490097
O        3.82607153      -8.22179149       5.51706235       0.68965837      -0.22839607      -0.14914575       1.48883713      -0.24673723      -0.58829394
H        4.68566356      -8.39610045       5.02666262      -0.01336056       0.02363050       0.15562552      -0.95566664      -0.17067657       0.65618201
H        3.27879701      -7.81483154       4.83191356       0.03999701      -0.21627736      -0.11011965      -0.51702270       0.31098294      -0.20809803
O       32.10263825      18.44569801      38.03135618       0.31581289      -0.19244470      -0.57411905      -0.62075243      -0.93365291      -0.13235168
H       31.74610607      17.63829953      38.48456227       0.37722460      -0.20960246       0.01888202       0.76857904       1.01584114      -0.12031130
H       32.63336937      18.95522386      38.65785917      -0.01234408      -0.26779671      -0.33356128      -0.03783361      -0.36232438       0.22653570
O       12.42853533      38.72576783     -11.81654065      -0.98571237       0.87992324       0.49722733       2.76354675      -1.00472506      -1.80802743
H       13.25359547      38.13113278     -12.01268788       0.22963321       0.03149544       0.36771895      -1.80576407       1.75001682      -0.10955336
H       12.13057052      38.32781442     -11.01254130       0.00831072       0.19198130      -0.34170484      -1.35086278      -0.50875200       1.49392003
O       15.34546422      40.41665712       6.07035784       0.13674760      -0.25060741       0.13704913      -1.13428725       1.39213133       0.98606122
H       15.14213408      41.39374530       6.33405167       0.10022335       0.21637259      -0.08916160      -0.20773566      -2.46846393      -0.49593690
H       14.80686121      39.78018499       6.62607921       0.07580061       0.43314184       0.17842851       0.72112378       1.33095671      -0.43924554
O       14.59769648      45.46998224      -5.43753126       0.74540295       0.04393130       0.07610291       1.07795444      -0.42090036      -0.81397648
H       14.02628592      45.87197757      -4.79708100      -0.24515039      -0.26885614      -0.09543536      -0.71297183       0.71868393       1.02669570
H       14.01262439      45.23186175      -6.17317261      -0.11115459      -0.11745594      -0.15932563      -0.02887979      -0.51426982      -0.15663861
O       17.25818909       2.75417540      24.63328899       0.97988173      -0.99169414      -0.07427042       0.07359553       0.41896204       0.08540738
H       16.69567886       1.97847266      24.56628941       0.23071432       0.05716989      -0.13620534      -0.58475669      -0.73045656       0.57137663
H       17.59746052       2.86298062      23.73696214      -0.20874079      -0.03389951      -0.12928511       0.63061460       0.36239401      -0.55657809
O       12.51251254      17.51564348       1.66180806      -0.48326893       0.32035350      -0.79593953      -0.03366925       0.45225793      -0.49104632
H       13.20516003      18.14812993       1.40987797      -0.12511477      -0.01768239       0.02003766       0.07295386      -0.23368976       0.00260726
H       11.91516549      17.39997415       0.89063147       0.08159148       0.55304888       0.12083462       0.07523975      -0.15601384       0.39154742
O        0.28218344       0.32954642      13.07472071      -0.41635143       1.25572579       0.75802056      -0.50446536       0.19950263       0.43672527
H       -0.32056874      -0.38133253      12.79280469      -0.07367300       0.05679388      -0.05128636      -0.47354976      -0.33162905       0.24005104
H        1.02370727       0.27796193      12.48759851      -0.04692072      -0.16034628       0.06292238       1.07420410       0.06884206      -0.78140786
O        7.94921569       1.70197852      24.03339063      -0.20410264      -0.55983545      -0.30832011      -1.74587410       0.38053225       2.42704000
H        7.74696625       2.69416004      23.95780979      -0.31579092      -0.03673754      -0.14161992       0.30818618      -1.24331993      -0.38899477
H        7.43880535       1.47277317      24.91601225       0.16718874       0.12156207       0.21176657       1.30774946       0.68056204      -1.99711087
O       14.13547571      -1.12577893      -6.51641972       0.27894795       0.21620021      -1.26826004      -3.04772210       0.78648514      -0.49873390
H       14.91904935      -1.58535089      -6.31845831      -0.08378334      -0.09770175       0.26531952       1.75025911      -1.09929152       0.36751034
H       13.38715063      -1.78448734      -6.49843212      -0.17201321       0.08360932      -0.25298488       1.04377564       0.59347743       0.34882854
O       11.70450239       8.73065991      -2.22880186       0.35783292       0.31618083      -0.52958882       1.12463569       1.99674193       0.84276886
H       12.06872038       9.66334491      -2.24265858      -0.05924153       0.00814701      -0.10112389      -0.67379656      -1.18198208       0.62242557
H       11.92882615       8.45892569      -3.10616961      -0.00987440       0.17486510       0.11145767       0.11379701      -1.06456836      -1.52996884
O       -1.68940987      25.19337776       4.33483670      -1.27313485       0.57025848      -1.40258471      -0.48124484       0.08449943       0.38536706
H       -1.08898924      25.74537875       4.85243044      -0.25254334       0.07315851      -0.06273346       0.35331008      -0.00319724       0.12355371
H       -2.50783669      25.23724412       4.87235694       0.09343220      -0.24534207      -0.00344405       0.31645581      -0.21028678      -0.41690129
O       19.36259248      20.84449288       8.41547562       1.02440365       0.83090760      -0.56172089       0.75535597       0.71644151       1.61470220
H       18.86160382      21.64499823       8.69335499       0.07282708      -0.03269321      -0.02178351      -0.11869828      -0.43459455      -0.64436899
H       19.23084738      20.76470087       7.47068537       0.16528009       0.36923855      -0.04463536      -0.59285005       0.03470302      -0.81768132
O        4.89861332      30.02945839      -3.46595220      -0.33646981      -0.37651023      -0.22367899      -0.34578342      -2.34288100       1.04078862
H        4.00832119      29.83787968      -3.81270279      -0.12398775      -0.14540687       0.09085691       0.22831518       0.60458072      -0.59062282
H        5.00645453      29.12244458      -2.97671520      -0.17508978      -0.03771071      -0.23787953       0.27041392       2.19561221      -0.23490250
O        6.26564214      21.23721796       7.05168301      -0.23569729       0.18756368      -0.46236348      -0.00352816       1.30385311       1.09539413
H        6.84776860      21.79976704       7.63258240      -0.34471436      -0.30634254       0.06316284      -0.83162325      -0.34547979      -0.54425084
H        6.86448443      20.60477806       6.67716394       0.18861402       0.13474039      -0.07275241       0.55520913      -0.80267919      -0.46218039
O       -5.92647316      17.41642020       8.54048559      -0.03226820      -0.13118049      -0.39306756       1.41953304      -0.89977044      -0.14856679
H       -6.37869012      17.91508812       7.84809621      -0.10456173       0.40939225       0.26849514       0.09093155      -0.06219846      -0.21429363
H       -5.30756186      16.73342383     -12.47045138      -0.21689653      -0.31223293       0.11716634      -0.84408679       1.02850098       0.12412281
O       14.46506008      21.89259531      32.26487215      -0.35703250       0.66602005       0.16876763       0.02150632       0.91552362       1.06157765
H       14.43544113      22.78198229      32.75491673      -0.01018958      -0.23773052      -0.17251373       0.07904618      -1.16997948      -0.88599050
H       13.85128695      21.33832527      32.77832183      -0.15280009       0.03279967      -0.34001381       0.06561158      -0.03299149       0.18838440
O       -1.29805985      14.03660011      13.48309492       0.20670733      -0.04231475      -0.82106785       0.96867915      -0.27732431       0.42509057
H       -1.36539146      13.04180171      13.46103096      -0.13206168      -0.04794125      -0.31000351       0.26512441       0.82420663       0.05183090
H       -0.34001398      14.19865266      13.76695592      -0.01425324      -0.08183499      -0.11492140      -1.31163073      -0.51549760      -0.70780030
O       24.90133554      17.87683262      30.46198736      -0.92513505       0.42101648       0.16422433      -0.54356057      -0.38636157      -1.00417016
H       24.39335761      17.45045830      29.71847603      -0.13644618      -0.18304289      -0.09399062       0.29159918      -0.00535185       1.11093173
H       25.28898354      18.66089683      30.04468818      -0.01926675       0.14641018      -0.36833510       0.34739049       0.36892801       0.12671481
O       14.74545058      37.98132169      28.08088471      -0.38336132      -0.77747893       0.87535877      -1.85770427       1.42091642      -0.69756101
H       15.01944734      38.55606960      28.80607924       0.12429396      -0.18135307       0.31534240       0.66108514       0.31985670       0.66319556
H       15.35166754      37.26330619      28.06196920      -0.03334344       0.15862925       0.05388836       1.25848055      -1.57864203      -0.06193231
O        1.07396346      12.70791255       5.97435152       0.16685138      -0.63234378       0.35017148       0.80103963      -2.08128382      -0.60969767
H        1.95239206      13.11537682       6.05972762      -0.03118963      -0.01352441      -0.12055385       0.00525802       0.60477602       0.23640286
H        0.43413045      13.38990117       6.05885305       0.27754451       0.10070405      -0.00031382      -1.25973480       1.24139496       0.12463612