1296
Lattice="928.1987899796808 1047.7257412255462 -490.7042976386452 0.0 785.0409670936756 -768.9138403447434 0.0 0.0 161.99823989354854" Properties=species:S:1:pos:R:3:momenta:R:3:forces:R:3 energy=-1486914.813732875 free_energy=-1486914.813732875 stress="7.86422442891249e-07 -7.141283746166002e-07 -6.363659628594327e-07 -7.141283746166002e-07 -7.634496436739483e-06 -4.872603187898787e-08 -6.363659628594327e-07 -4.872603187898787e-08 -6.282902692251303e-06" pbc="T T T"
C    -2306.40516211   -7430.40392976    2334.94557551       0.00037906       0.00033040      -0.00098275      -0.94465845       0.13517378       0.04136002
C    -2302.23474225   -7427.60862853    2334.33717747      -0.00058358      -0.00012021       0.00005380       3.83377766      -0.99043639      -0.51318474
C    -2307.21332889   -7430.74033189    2336.03331731       0.00058012       0.00001021      -0.00085390      -0.94749122       0.62953057      -0.66422544
N    -2305.71015500   -7430.12581005    2334.08714219       0.00059691       0.00108561      -0.00099006       0.88831442       0.46306214      -1.16224432
C    -2304.06981702   -7431.67813171    2336.57015250       0.00099683      -0.00030722       0.00028595      -1.04736773       0.24002018       0.61320138
N    -2301.08036968   -7427.89293914    2334.18333371       0.00045547      -0.00007770      -0.00002372      -3.85149943       0.95218535       0.52105372
C    -2305.20287060   -7431.52604852    2337.11407207       0.00088844      -0.00056831       0.00186870       1.20546959      -0.36186659      -0.85664618
N    -2302.96530458   -7431.91796100    2336.02525271       0.00312099       0.00111062       0.00141637      -1.02202752       0.67454229       1.04492143
C    -2306.66149434   -7431.36681286    2337.09459077      -0.00006249       0.00015560       0.00026566       1.29864355      -0.18488442       0.20339058
N    -2314.26292005   -7425.80544484    2315.65912255      -0.00000000      -0.00000000       0.00000000       0.00000000       0.00000000       0.00000000
N    -2307.41590678   -7431.89227760    2338.04654242      -0.00164653       0.00155756       0.00033082      -1.75461696       0.29828505       0.43378156
N    -2308.69241622   -7430.67447680    2335.82007994      -0.00081901      -0.00023702      -0.00033152       1.33371468       0.37211135       1.18314313
O    -2622.35341759   -7700.76455328    2370.75541341      -0.00001728       0.00012151      -0.00004971      -0.05509193       0.38735027      -0.15845448
O    -2733.31254595   -7457.94752721    2924.12914315      -0.00010524       0.00003730       0.00004571       0.17662523      -0.06259463      -0.07670587
O    -2295.98129152   -7442.11175436    2350.09506424      -0.00000000      -0.00000000       0.00000000       0.00000000       0.00000000       0.00000000
O    -2303.96349671   -7434.05963936    2335.27626960      -0.00099306      -0.00283455      -0.00102285      -1.24210942      -1.91829653      -0.41301923
O    -2309.07489601   -7431.03496359    2334.76973547      -0.00288710       0.00112465      -0.00154612      -0.63031567      -0.85183476      -2.93054202
O    -2309.43891569   -7430.27325057    2336.68821360       0.00021323      -0.00220827       0.00218849       0.28125490       0.17649293       1.50198147
H    -2731.25028276   -7458.67837746    2923.23353103       0.00010524      -0.00003730      -0.00004571      -0.17662523       0.06259463       0.07670587
H    -2622.06082515   -7702.82176505    2371.59696292       0.00001728      -0.00012151       0.00004971       0.05509193      -0.38735027       0.15845448
H    -2303.37019767   -7433.32341043    2335.34880256       0.00021893      -0.00031856      -0.00017206       0.98779076       0.96410057       0.00692019
H    -2302.09080869   -7431.44785820    2336.20025193      -0.00012739       0.00098896      -0.00053589      -0.42912437       0.24296131       0.12079319
H    -2306.94640032   -7432.35172046    2338.77681665      -0.00016320       0.00007033       0.00007235       0.19325613      -0.61145605       1.06871083
H    -2308.44502205   -7431.69351503    2338.12176790      -0.00016762       0.00023789      -0.00002327       1.84698909      -0.22969077      -0.19939558
C     2698.55248277   14720.82052412  -10257.47156181      -0.00000812       0.00000806       0.00000909       0.14841673      -0.05831652       0.11942058
C     2952.62305375  -15309.29034188   13453.32083617      -0.00014388       0.00030094       0.00004712      -1.77198336       3.70631283       0.58027936
C     2697.73636555   14721.52662318  -10256.89088247      -0.00030156       0.00025905       0.00020819      -0.36197075       0.31132971       0.25159086
N     2699.40745131   14720.10895413  -10257.98953079       0.00034351      -0.00027757      -0.00018124       0.43862810       0.15723414       1.41099743
C     3874.12901933   -7004.96964733    9736.57641958       0.00044290       0.00025668       0.00047350       0.45391573       1.47282208      -2.36218710
N     2953.10147183  -15310.29100990   13453.16416645       0.00014388      -0.00030094      -0.00004712       1.77198336      -3.70631283      -0.58027936
C     3874.35080328   -7004.24856540    9735.45383368       0.00067931       0.00058824       0.00028791       0.57590780       0.44557086       0.22998291
N     3873.99199981   -7005.52665909    9737.53720521      -0.00056456      -0.00073537       0.00021281      -0.69490525      -2.53014506       4.17213222
C    -2903.63488277   -4203.64079868   -4454.89529550       0.00008092      -0.00003793      -0.00011031       0.84371250      -0.39548614      -1.15009331
N     3873.61513314   -7004.47864430    9734.39691745      -0.00027055      -0.00004730      -0.00018194      -1.10926597      -1.40444191       0.70048084
N    -2904.28578133   -4203.33569314   -4454.00803346      -0.00008092       0.00003793       0.00011031      -0.84371250       0.39548614       1.15009331
N    -7533.85487777   -9351.66465225   19294.68209264      -0.00015218       0.00046017       0.00018536      -1.17106462       3.54125340       1.42644615
O     8083.26156994  -13498.97568258  -14339.58885203      -0.00064666       0.00016372       0.00143891      -0.12126385       0.03070190       0.26983074
O   -13671.76177336   13567.75377896    3650.15117402       0.00006901      -0.00079597       0.00103775      -0.00347248       0.04005113      -0.05221728
O     3873.87305248   -7003.78486768    9733.45582470      -0.00038808      -0.00013442      -0.00083124       0.30881345       1.48102031      -2.56054761
O    -3715.74162234   12386.30176168   12521.84046582       0.00003648       0.00003904      -0.00002405       0.00780826       0.00835628      -0.00514792
O   -10061.09630875    8381.59010132   -2282.42217397       0.00000318       0.00000353      -0.00000568       0.62018943       0.68734534      -1.10730302
O    -7533.53268014   -9352.63896522   19294.28963132       0.00015218      -0.00046017      -0.00018536       1.17106462      -3.54125340      -1.42644615
H     2697.03354419   14722.13227551  -10256.39869272      -0.00004467       0.00003757       0.00002864      -0.21224987       0.17983162       0.13881497
H   -13671.64058415   13566.35599716    3651.97355365      -0.00006901       0.00079597      -0.00103775       0.00347248      -0.04005113       0.05221728
H     8082.01763156  -13498.66073895  -14336.82089752       0.00064666      -0.00016372      -0.00143892       0.12126385      -0.03070190      -0.26983074
H    -3712.73028244   12389.52445256   12519.85511389      -0.00003648      -0.00003904       0.00002405      -0.00780826      -0.00835628       0.00514792
H     2699.30039297   14719.88554735  -10258.92791773       0.00001083      -0.00002712      -0.00006467      -0.01282421      -0.59007894      -1.92082385
H     3875.09809458   -7003.50211947    9735.41793735       0.00010098       0.00007216       0.00003896       0.46553424       0.53517372      -0.17986127
C     -256.66873289     955.95179902   -3231.87718933      -0.00029630      -0.00157686      -0.00022158      -0.47522661      -3.41054159       0.19110159
C     -256.54178395     957.08869325   -3231.91475773      -0.00085166      -0.00059930      -0.00073249      -0.10505653       3.50655611      -0.14214217
C     -253.16936489     955.40655820   -3229.36619230      -0.00144552      -0.00099202      -0.00063622      -1.35753829      -3.68325235      -0.98886138
N     -256.77122006     954.67371969   -3231.76042389      -0.00062524      -0.00301679       0.00059819      -1.72115959      -2.94442177       0.51766313
C     -256.17382490     958.40220575   -3232.07911948       0.00004729       0.00019089      -0.00026569      -0.35078137      -0.25009152      -0.07301253
N     -250.60034061     956.73483482   -3236.79707096       0.00004727      -0.00023981       0.00000464      -0.24435768      -1.84425606       0.68142646
C     -255.81855218     959.07562293   -3231.03848659       0.00059337       0.00013008       0.00102309       0.89624511       0.25819996       2.16947690
N     -256.20297436     958.84113348   -3233.32982245       0.00033031       0.00049873      -0.00084603      -0.38148424       0.93353254      -0.28387492
C     -252.85273329     956.49879894   -3229.07829405      -0.00034493      -0.00021758      -0.00034364      -0.05641085      -0.01937641      -0.06076754
N     -255.23720694     960.30859446   -3231.37774864       0.00026866       0.00139532       0.00076665       2.52346215      -0.16493690      -0.13461600
N     -252.33649420     957.54130106   -3228.82867079       0.00146236       0.00003957       0.00040140       1.71988511       2.40468014       0.53155079
N     -250.19540432     956.33420020   -3226.17289903       0.00054340       0.00008238       0.00015354       0.99180504      -3.63711650       1.54883561
O     -251.34863545     956.96197345   -3235.87234579      -0.00022920       0.00008812       0.00016555      -0.62046923       0.20086615       0.75434329
O     -250.16399912     957.56402682   -3237.52571219       0.00007347       0.00018076      -0.00013556       0.85493473       1.64630772      -1.43246629
O     -255.95116462     961.26436521   -3231.27639914      -0.00037759       0.00195480       0.00041658      -0.16383734       2.14284991      -0.15660457
O     -254.03736350     960.30557822   -3231.77332171       0.00123682       0.00144004      -0.00049992      -1.99595888       0.55997782       0.54813387
O     -250.23908596     955.75908072   -3227.36160460      -0.00019676      -0.00022803      -0.00110711       0.41928494      -2.59618778      -1.10785842
O     -250.41835945     957.44553909   -3226.21899195      -0.00027569       0.00116299       0.00148110      -0.99206996       5.34471962       0.68270993
H     -257.74935434     954.34465648   -3231.72775881      -0.00012641      -0.00019748      -0.00000723       1.21362399      -0.07928516      -0.12912883
H     -256.14715771     954.17781658   -3232.35783562      -0.00005466      -0.00026430       0.00002936       0.05420630      -0.67338313      -0.22214008
H     -255.75601169     959.67059580   -3233.56043282       0.00013283       0.00003193      -0.00004180       0.79694248       1.67333324      -0.55547122
H     -256.26330231     958.19252629   -3234.04073722      -0.00003320      -0.00002604      -0.00009773      -0.26570316      -1.55767773      -1.71023456
H     -250.51333912     956.43405527   -3227.96926983      -0.00003776       0.00003791      -0.00005847      -0.50355424       1.05187125      -1.09806815
H     -252.86042197     958.27836232   -3228.44221986       0.00015914       0.00012472      -0.00004664      -0.23678188       1.13763245       0.47000509
C     -988.34687679   -3423.22463951    1452.31544067       0.00012181       0.00041348       0.00035103       1.22639243       4.18710299       3.53256605
C     -992.56937668   -3426.38502144    1454.68160429       0.00010697       0.00038300      -0.00007882       1.42917882       5.23277725      -1.14522061
C     -397.60697654   -2494.85583884    3701.23557594      -0.00012714      -0.00014632       0.00006931      -1.67770501      -1.93083271       0.91458478
N     -988.58918582   -3424.05192475    1451.61759971      -0.00014094      -0.00042434      -0.00033613      -1.22880024      -4.18850456      -3.53071488
C     -994.73028267   -3429.62423577    1460.88100627       0.00050893      -0.00014692       0.00048115      -0.03920396       0.30697051      -0.08454051
N     -992.85552051   -3427.43220338    1454.91122955      -0.00001740      -0.00034466       0.00001805      -1.41968389      -5.22685212       1.14084035
C     -995.75047146   -3428.97130521    1460.53726314       0.00010829       0.00012746       0.00003507       1.39083271      -0.73159215       1.51297093
N     -993.80552040   -3430.30361815    1461.29832147       0.00097958      -0.00047018       0.00107445       1.29127375       0.24064527       0.01079033
C     -996.33879391   -3428.74243077    1459.36468212      -0.00048266       0.00050862      -0.00046052       0.72592155      -0.20920491       1.47567801
N     -995.96102556   -3425.41088444    1460.40512814      -0.00021189      -0.00006938      -0.00014118       0.03675210       1.19173026      -1.59285535
N     -996.86202234   -3428.54314034    1458.38317980      -0.00133763       0.00102224      -0.00086726      -1.66245996       0.69874330      -2.92851729
N     -396.90815411   -2494.05157993    3700.85461960       0.00012714       0.00014632      -0.00006931       1.67770501       1.93083271      -0.91458478
O    -5280.77245992   -7175.52800564   -2409.69218847      -0.00009452      -0.00007781      -0.00005033      -0.14900270      -0.12265965      -0.07933975
O     -997.82340301   -3436.44141810    1468.27667166      -0.00018337      -0.00001354       0.00005924       0.27274740       0.02014438      -0.08812434
O     -995.04447141   -3425.12376359    1459.65122326       0.00010215      -0.00007319      -0.00025735       0.01384172       0.35261854      -0.52669520
O     -995.76726574   -3426.15730551    1461.30507623       0.00011994      -0.00093648      -0.00000831      -0.04947752      -1.70618761       2.05651887
O      193.12844529   -4620.63948370    3302.63706485       0.00000101       0.00001182      -0.00002042       0.08621287       1.00668230      -1.73875882
O    -2950.25453542   -1599.23044032     582.58058971      -0.00001018      -0.00007255       0.00005553      -0.04383431      -0.31225296       0.23898626
H    -2950.00574654   -1597.45819679     581.22418355       0.00001018       0.00007255      -0.00005553       0.04383431       0.31225296      -0.23898626
H    -4262.65002070    -236.44368990   12887.65449570       0.00000000      -0.00000000       0.00000000       0.00000000       0.00000000       0.00000000
H     -995.55271182   -3436.27371106    1467.54301423       0.00018337       0.00001354      -0.00005924      -0.27274740      -0.02014438       0.08812434
H     -992.79286171   -3430.08905144    1461.19395495       0.00014285       0.00001035       0.00018982      -1.71456751      -0.14824676       0.07917930
H      193.08870360   -4621.10353575    3303.43858345      -0.00000101      -0.00001182       0.00002042      -0.08621287      -1.00668230       1.73875882
H    -4256.84145614    -235.97830065   12903.06032644      -0.00000000      -0.00000000       0.00000000       0.00000000       0.00000000       0.00000000
C     1324.32623537    2866.88620133      88.41543287      -0.00010988      -0.00027731       0.00025546       0.90564397       1.84339847      -2.23377414
C     1324.76300403    2867.69337689      87.32196812      -0.00003473       0.00002721       0.00009967      -0.20619720      -3.02938309       0.03183834
C     4293.36131776    3307.74331490     415.68418941       0.00001931       0.00007883      -0.00012247       0.48660977       1.98660668      -3.08638279
N     1323.99716792    2866.19634577      89.22348645      -0.00034273       0.00007412       0.00099315      -1.46687379      -2.91431046       3.63253484
C     1325.12236748    2866.95549322      86.16513798       0.00015637      -0.00061315      -0.00056136      -0.84009454       1.59387603       2.68281900
N     5927.79133459   -2576.57690201   -2313.80139470      -0.00000878      -0.00034866      -0.00022345      -0.08007848      -1.97202972      -1.32418602
C       91.10943179    6973.85870402   -1240.19932636       0.00004863      -0.00028648       0.00013346       0.78294100      -4.61239995       2.14865247
N     1325.39703107    2866.35621745      85.27379971       0.00052935      -0.00059535      -0.00160954       1.37685365      -2.87300948      -4.44318024
C     4052.21611262   -2966.03462174     373.34121992       0.00013982      -0.00013771      -0.00008938       0.90177245      -0.88813932      -0.57647820
N       90.94023294    6974.85547489   -1240.66366471      -0.00004863       0.00028648      -0.00013346      -0.78294100       4.61239995      -2.14865247
N     4051.47519807   -2965.30490845     373.81486611      -0.00013982       0.00013771       0.00008938      -0.90177245       0.88813932       0.57647820
N     4293.21547636    3307.14791069     416.60920659      -0.00002407      -0.00009826       0.00015266      -0.68229871      -2.78551574       4.32756414
O     5927.43875407   -2575.45161435   -2313.83498710      -0.00028449       0.00070139      -0.00014921      -1.04419189       3.03537206      -0.27516419
O     5928.39520273   -2577.05482563   -2312.88725761       0.00029327      -0.00035273       0.00037266       1.12427038      -1.06334233       1.59935020
O     8907.60258061   -3231.13387860   -4942.96029911      -0.00019019       0.00001668      -0.00068351      -0.02896575       0.00254091      -0.10409775
O     4211.92519582   -2696.54053001  -14294.55387087      -0.00006457      -0.00011284      -0.00011578      -0.15229763      -0.26615762      -0.27307079
O     1324.82432436    2868.83817312      87.35720103      -0.00019839       0.00138447       0.00082263       0.23066791       5.37942852       0.32976220
O     1869.52578322    5875.57136957    3932.53108911      -0.00139583       0.00014889      -0.00316759      -0.20120826       0.02146191      -0.45660718
H   -18280.67231504 -135661.91128521   93499.25490090      -0.00000000       0.00000000      -0.00000000       0.00000000       0.00000000       0.00000000
H     1868.41735229    5875.68960051    3930.01569776       0.00139583      -0.00014889       0.00316759       0.20120826      -0.02146191       0.45660718
H     8906.65125527   -3231.05042731   -4946.37919348       0.00019019      -0.00001668       0.00068351       0.02896575      -0.00254091       0.10409775
H    16746.12391113   43539.89548597   48072.21456566       0.00000000       0.00000000       0.00000000       0.00000000       0.00000000       0.00000000
H     4212.75730561   -2695.08632246  -14293.06189174       0.00006457       0.00011284       0.00011578       0.15229763       0.26615762       0.27307079
H    -1707.70935923   13885.47122949  -15813.33281457      -0.00000318      -0.00000353       0.00000568      -0.62018943      -0.68734534       1.10730302
C    12130.11958319    3297.06111802   -5714.12826096       0.00009668      -0.00006548      -0.00012302       0.95603712      -0.64749791      -1.21657522
C    -2010.60025378    7671.42133413   -2890.60720540      -0.00024867      -0.00057760      -0.00033199       1.23439750       2.87154615       1.73054578
C     1784.37453235   -8036.24923968    6701.06991963       0.00001123      -0.00028856       0.00013823       0.18829457      -4.84045290       2.31874266
N    12129.46967342    3297.50128422   -5713.30123855      -0.00009668       0.00006548       0.00012302      -0.95603712       0.64749791       1.21657522
C    -2010.13943752    7672.49348514   -2889.95796698       0.00024190       0.00056377       0.00035916      -1.23094529      -2.86440535      -1.74284388
N    -2010.98124720    7670.53500964   -2891.14190744      -0.00071204      -0.00165760      -0.00102153      -2.28377257      -5.31305764      -3.20899666
C     -565.28550666   -4174.90569205    2981.29374363       0.00094562       0.00035253      -0.00003422      -1.46116034      -0.54473705       0.05288927
N    -2009.75919796    7673.37827116   -2889.42017761       0.00071880       0.00167144       0.00099436       2.28032035       5.30591684       3.22129477
C     1888.20700800   10629.49023040    2386.35476614       0.00012460      -0.00009630      -0.00010756       0.65360033      -0.50514938      -0.56420653
N     -566.39602886   -4175.31970678    2981.33394053       0.00022519       0.00008396      -0.00000816       0.07964753       0.02969509      -0.00288433
N     1887.45813493   10630.06901341    2387.00121483      -0.00012460       0.00009630       0.00010756      -0.65360033       0.50514938       0.56420653
N     1784.33558328   -8035.24798342    6700.59028360      -0.00001123       0.00028856      -0.00013823      -0.18829457       4.84045290      -2.31874266
O    -5245.70083472   -8638.89092363   -9963.75661177      -0.00002861       0.00000582      -0.00002800      -0.18996875       0.03867533      -0.18592383
O    -1699.47097132    8962.99216703   -4558.19558848       0.00001770       0.00000174       0.00000595       0.23368769       0.01900961       0.08736479
O     -567.55090359   -4175.75025628    2981.37574255      -0.00117081      -0.00043650       0.00004238       1.38151281       0.51504196      -0.05000494
O    -2255.32617170   10258.06910353   -4570.82017433      -0.00001892      -0.00003147       0.00000545      -1.02481441      -1.70463300       0.29532466
O      150.41223682   -3646.83071781   -2894.15279627      -0.00011240      -0.00007081      -0.00002614      -0.03966818      -0.02499064      -0.00922464
O    12068.86385261  -19668.04933586   -4899.90456815       0.00000106      -0.00003399       0.00002015       0.06443583      -2.07181904       1.22847401
H    -1700.20569006    8963.08376816   -4558.80733013      -0.00005246      -0.00000643      -0.00001480       0.29859630       0.10518233      -0.06850041
H    -2254.85370757   10258.85498040   -4570.95632611       0.00001892       0.00003147      -0.00000545       1.02481441       1.70463300      -0.29532466
H    -5245.02521404   -8639.02847181   -9963.09537680       0.00002861      -0.00000583       0.00002800       0.18996875      -0.03867533       0.18592383
H    12068.83922627  -19667.25751980   -4900.37407125      -0.00000106       0.00003399      -0.00002016      -0.06443583       2.07181904      -1.22847401
H    -1698.68299154    8963.37258788   -4558.60538397       0.00003475       0.00000469       0.00000885      -0.53228398      -0.12419194      -0.01886438
H      152.32453679   -3645.62598414   -2893.70810055       0.00011240       0.00007081       0.00002614       0.03966818       0.02499064       0.00922464
C     1715.39575830    3447.61137969   -2912.38463119      -0.00036040      -0.00027293      -0.00000291       0.93759401      -1.21305588      -4.32486206
C     1712.98021933    3445.71419144   -2907.68564570       0.00009127       0.00040353       0.00012249       1.09362456       3.09938665      -2.90722137
C     1714.87427486    3449.08314393   -2908.19202962      -0.00047021      -0.00111068      -0.00068063      -1.83655202      -3.87570795      -0.62994765
N     1715.14889446    3447.89676827   -2911.32180604       0.00038515       0.00053877       0.00051768      -0.65151698       0.74569362       2.81311837
C     1711.74393524    3446.90321799   -2903.68444017      -0.00005808       0.00006229       0.00013918      -0.33775061       0.00822391       0.76851416
N     1712.70217658    3444.93415928   -2906.93551135       0.00007841      -0.00057772      -0.00041932      -1.07208723      -3.18377014       2.83057681
C     1711.26166207    3446.92446717   -2902.58820704      -0.00015618       0.00000289       0.00036291      -0.87595352       0.03613010       1.99018221
N     1722.07692857    3445.05346663   -2905.25281290       0.00001484       0.00001829       0.00003253       1.10463090       1.13170974       1.53761077
C     1715.35473042    3450.12712667   -2908.02638972      -0.00005880      -0.00028161      -0.00032400       0.78094224       1.46114540       0.13558094
N     2393.09757934    2060.80418316   -2909.91845024      -0.00008057       0.00015880       0.00014536       1.35386037       0.35604482       1.88798504
N     1715.97265438    3451.26659364   -2907.83319478       0.00040244       0.00078076       0.00027367       1.30396628       0.25218687       0.33452157
N     1719.25924045    3444.86989057   -2916.27238951      -0.00024825       0.00005293      -0.00012709      -1.63640581       0.34051681      -0.83431887
O     1255.49987369     919.38000523   -4246.82513439      -0.00001339      -0.00010748       0.00005140      -0.04739485      -0.38052855       0.18199120
O     1712.20756153    3446.89141105   -2904.73598147       0.00004951       0.00019873      -0.00008727       1.18262153       0.03007858      -2.66312657
O     2392.57482264    2060.46804656   -2910.93189393      -0.00075445      -0.00001769      -0.00079334      -0.80785130      -0.57202084      -1.64140968
O     2394.16702570    2060.33083184   -2909.50755408       0.00083502      -0.00014111       0.00064798      -0.54600907       0.21597602      -0.24657537
O     1719.98569247    3445.80953406   -2916.34851404       0.00024220       0.00067102      -0.00017182       1.27981109       2.72283957      -0.57105093
O     1719.62641479    3443.89023585   -2915.71545576       0.00000605      -0.00072394       0.00029890       0.35659472      -3.06335638       1.40536980
H     1722.89971670    3445.50242513   -2905.62140451       0.00002708       0.00002008       0.00000826      -0.25715553      -0.13467597       0.13687971
H     1715.85747565    3451.90232815   -2908.56315954       0.00002732       0.00007234      -0.00001211      -0.04386292       1.28951625      -1.30508752
H     1714.99089095    3448.19523172   -2910.40483669       0.00006246       0.00007823       0.00007242      -0.27329052       0.47131510       1.51687604
H     1255.75015966     921.38952660   -4247.78620603       0.00001339       0.00010748      -0.00005140       0.04739485       0.38052855      -0.18199120
H     1715.72812612    3451.68424461   -2906.98410560       0.00000711       0.00010540       0.00003791      -0.20773482       0.87885750       1.44087508
H     1721.69874628    3444.60306667   -2906.02109513      -0.00004192      -0.00003838      -0.00004079      -0.84747537      -0.99703377      -1.67449049
C     1207.39825684      26.89565192    -817.62534298       0.00008942      -0.00023295       0.00012423       0.89028892      -4.06598023       2.47098621
C     1208.74972805      20.39314534    -817.75253050      -0.00000329      -0.00047350      -0.00022325      -0.02014786      -3.86996646      -1.75992070
C     1208.75503659      21.43545129    -817.27907814      -0.00000439       0.00048415       0.00022845       0.01881035       3.86955970       1.75748287
N     1207.19505668      27.83177560    -818.19537648      -0.00005394       0.00025029      -0.00016716      -0.88302353       4.06641247      -2.47828533
C    -3002.32085835    1167.90017289   -5230.25019239       0.00004855       0.00000483      -0.00002635       1.15313504       0.08136388      -0.65345857
N    -1820.03989017    3676.17417840    1901.88347267      -0.00008096      -0.00046001       0.00002601       0.19079765      -4.10738726      -0.70364203
C    -3003.52920558    1167.77252432   -5229.60063277      -0.00064591      -0.00009633       0.00032390       1.88973978      -0.02178905      -1.19964443
N    -3001.27303600    1168.00943281   -5230.81464808       0.00070540       0.00009133      -0.00036524      -2.37726973      -0.24216541       1.28536958
C     1204.76203624      24.65243577    -813.93809782       0.00000437       0.00003728      -0.00004951       1.25165310       1.46131807      -2.39134903
N     3923.78153519    -524.11292528   -3409.61640487      -0.00027781      -0.00038998      -0.00032695       0.54258856      -2.51049139      -1.29682304
N     1204.30034567      24.11601466    -813.05911845      -0.00003086      -0.00006632       0.00008714      -1.25711117      -1.46611332       2.39855750
N     1704.60712138   11066.22301210   -2625.81036297       0.00006423       0.00037359      -0.00015821       0.66027925       3.84061314      -1.62647276
O    -1820.00789301    3677.28386158    1901.98800092       0.00024103       0.00083576      -0.00014347       0.62384142       5.38796557       0.02767023
O    -1820.97106400    3675.63707917    1902.77080030      -0.00014080      -0.00028511       0.00010895      -0.73612632       1.29461383       0.91418426
O     3923.74093337    -523.09402892   -3409.02783199      -0.00023441       0.00091890       0.00046226      -0.49760966       2.86023499       1.51927428
O     3924.81280824    -524.78436852   -3409.65611873       0.00051222      -0.00052892      -0.00013531      -0.04497890      -0.34974360      -0.22245124
O     1704.43562441   11065.22547428   -2625.38791269      -0.00006423      -0.00037359       0.00015821      -0.66027925      -3.84061314       1.62647276
O    -4493.26663847   10942.64744852   -8910.87731297      -0.00004592       0.00002902       0.00003067       0.00583235      -0.00368555      -0.00389558
H    -1820.90737317    3674.73256202    1902.59364599      -0.00001926      -0.00009064       0.00000851      -0.07851274      -2.57519213      -0.23821246
H    -4491.56248863   10941.57057127   -8912.01555930       0.00004592      -0.00002902      -0.00003067      -0.00583235       0.00368555       0.00389558
H     1208.75952370      22.35937939    -816.85871256      -0.00000148       0.00011277       0.00005240       0.00900784       1.96260505       0.89149382