24
Properties=species:S:1:pos:R:3:forces:R:3 energy=-27552.23193935013 free_energy=-27552.23193935013 stress="-3.991609178500321e-09 2.5567945244872154e-09 -1.8909427148323515e-09 2.5567945244872154e-09 -5.796957904154152e-09 1.5148834873149094e-09 -1.8909427148323515e-09 1.5148834873149094e-09 -8.029973602773779e-10" pbc="F F F"
C        0.98824056       1.14403427       0.55001659       0.00063254      -0.00389560      -0.00116214
C        1.56141510      -0.12886350       0.86695263       0.00447952      -0.00356585       0.00141884
C       -0.30901556       1.19430429      -0.03400661      -0.00165860      -0.00147718       0.00352630
N        1.89641142       2.00655470       0.91828779      -0.00669156      -0.00227879       0.00497785
C        0.91061347      -1.39842661       0.62270186      -0.00075518       0.00081828       0.00602417
N        2.73460811       0.01311763       1.39005015       0.00436067      -0.00169336       0.00055946
C       -0.36964842      -1.33239307       0.02938782      -0.00043963       0.00276793       0.00366508
N        1.58804020      -2.46374722       0.98139098       0.00361517      -0.00160173      -0.00712442
C       -0.99228632      -0.04633551      -0.29578151      -0.00261114       0.00073695      -0.00012326
N       -1.04716085      -2.56399553      -0.23915297      -0.00059001       0.00169661       0.00112060
N       -2.18481729      -0.01000893      -0.82898641      -0.00221461       0.00058453      -0.00305067
N       -0.87689484       2.45267966      -0.31968255      -0.00024586       0.00122397       0.00015114
O        2.98918273       1.30696704       1.44400569       0.00065744      -0.00090422      -0.00335452
O        2.14297167       4.48047146       0.82078855      -0.00094513       0.00596535       0.00175147
O       -2.16375871      -2.57399184      -0.74611033       0.00051849      -0.00343173       0.00025513
O       -0.47614575      -3.61684145       0.05215799      -0.00006566       0.00327168       0.00268323
O       -1.99883679       2.54776140      -0.83323844       0.00080238      -0.00061007      -0.00121246
O       -0.20817829       3.43809514      -0.03376973      -0.00282602       0.00268463      -0.00239445
H        1.95454221       3.12969337       0.86398087       0.00253496       0.00410323      -0.00131940
H        1.34625311       4.89044703       0.47778200       0.00130294      -0.00204040       0.00000985
H        1.17420252      -3.37158845       0.82303769      -0.00162776       0.00048574       0.00024484
H        2.49839871      -2.34866267       1.39562809       0.00060710      -0.00364700      -0.00166250
H       -2.55848867       0.91295894      -1.02809414       0.00117363       0.00296230      -0.00446136
H       -2.65504411      -0.88276928      -1.01019113      -0.00001367      -0.00215526      -0.00052280
