1296
Lattice="-21.12600239160319 11.733103560569914 7.282371915899999 0.0 23.257383551451717 13.508545328333875 0.0 0.0 -26.771211124017015" Properties=species:S:1:pos:R:3:momenta:R:3:forces:R:3 energy=-1487867.5328041755 free_energy=-1487867.5328041755 stress="0.0022169066105077284 0.00034930115697383833 -0.0020024353480458767 0.00034930115697383833 0.0029588400731666614 -0.0002289020133213703 -0.0020024353480458767 -0.0002289020133213703 0.0025161937951110767" pbc="T T T"
C      -19.80778392      15.54641051       0.73357899       0.03174570       0.13575141       0.80809080      -0.05706989       1.50723994      -2.15898662
C      -19.73331702      14.33998377       0.05330307      -0.11041189      -0.21156096       0.39871896       0.11922097      -1.39723810      -1.01703161
C      -19.81081095      15.48497633       2.11003490       0.49907108       0.44907576      -0.54642596       0.50178037      -0.48843608       1.93231678
N      -19.88727908      16.71213725       0.06997352      -0.53928867      -0.10509412       0.22075896      -0.03034529      -1.02637908       2.80948021
C      -19.69951715      36.36674750      14.18785126      -0.55368878       0.03792104       0.48678684       0.97657073      -1.88700115       0.17434538
N      -19.61613852      14.34862084      -1.39452436      -0.75890869       1.18687072       0.02385163      -0.12038450       3.01091471       0.30252172
C      -19.58663754      36.31428064      15.65208790      -0.19343333      -0.90526381       0.44073820      -1.30571976      -1.56923434      -2.54596758
N      -19.61190371      35.21999041      13.49239850      -0.94536601      -0.38234177       0.47253485      -0.03878088      -0.60696234      -0.75708627
C      -19.74351220      14.25452130       2.83480413       0.82640191      -0.55782236      -0.23347825       0.73315034       0.66949137       2.69237182
N      -19.67250315      34.99841558      16.27664274       0.21924186      -0.13383188       0.13798839       0.46546213       1.67879063       1.04945064
N      -19.73412785      14.22800059       4.20038959       1.14098735      -0.14230864       1.13215526      -0.39254781      -0.70152264      -2.03399940
N      -19.69072702      16.67574023       2.85108951      -0.08772241      -0.94559230       0.82849630      -1.50344141       1.64462991       0.64884477
O      -20.40086804      13.71411631      -2.08295121      -0.92472462       0.35880053      -0.01726152       0.87828419      -0.49876897      -0.17525091
O      -18.82942649      15.21858585      -1.81422335       0.04068305       0.38779960       1.30263752      -0.68691519      -1.70934372      -0.24690508
O      -19.95345109      34.97877124      -9.29818501       0.04706627       0.52313038       0.73414573      -0.46825356      -0.32920970       0.61145470
O      -19.40487848      33.96325903      15.71706590       0.06208363       0.38997172       0.91924753       0.20196664      -0.70693346      -1.04492630
O      -19.14866043      16.69670101       3.94203550       0.07370839      -0.12599889       1.44381445       0.40963971      -0.11246312       0.17394645
O      -20.24562874      17.72517119       2.41631439      -0.51211190       0.04385678       0.03224216       0.74941054      -0.73632614       0.08466105
H      -19.88230715      17.49603964       0.72252103      -0.05760161       0.08906237      -0.02858959      -0.11810402       0.30737477      -1.26089484
H      -19.59497552      16.75972396      -0.86420084      -0.08730528       0.11306733      -0.14723864       0.35774923       0.42802677      -1.09955364
H      -19.52753853      34.36650907      14.02345517       0.01929941      -0.13860868      -0.15249118       0.04694806       0.10182920       0.19061699
H      -19.60825648      35.01187555      12.47805307       0.32397090      -0.09064275       0.04168923      -0.30516777       1.30244628       1.12948548
H      -19.46038345      15.02618849       4.73780132       0.11321726       0.04855577      -0.02866408      -0.15891911       0.07080646       0.12140056
H      -19.79999864      13.27489766     -22.21381957       0.24970754       0.15539284       0.07605708       0.33817560       0.82106590       0.53264188
C      -16.10658358      12.58779234       1.86471900       0.41264867       0.48152078      -0.27616131      -0.20477566       0.52552399       0.86248404
C      -16.25047155      13.82759044       2.60193360       0.14651338       0.27763447      -0.96515853       0.01454328       1.13971823       0.15967361
C      -15.97959556      12.68565817       0.44159617      -0.71411821       0.26242309      -0.74120815       1.15760576      -2.60638417       0.44328325
N      -16.09609676      11.41298523       2.48288389      -0.14087856      -0.23416990      -0.23522807      -0.05275527       0.72765821      -0.57362302
C      -16.26087674      15.12311291       1.97677527       0.21979220       0.66471219       0.29248422      -0.36017616       0.71248048      -0.18084235
N      -16.33484908      13.81325246       4.04418093       0.11945943       0.41405240      -0.10822048       0.47871656      -0.46076133      -0.04337363
C      -16.17655368      15.11689141       0.53232360       0.99632998       0.59974584      -0.59584987      -0.42463145       0.87255526       1.89937548
N      -16.40363714      16.26567759       2.68065787       0.53767118      -0.47739729       0.62941485       0.28520687      -0.41586492       0.22229864
C      -16.03286735      13.92612213      -0.20724088      -0.46111734      -0.77048685      -0.85320514      -0.20592529       0.61109960      -1.87178554
N      -16.12768840      16.39047273      -0.11112786      -0.44711490      -0.76187072       0.79513836      -0.05714087       1.03652882       1.14905705
N      -16.04627730      14.01178738      -1.53094537      -0.14251692      -1.12830408      -0.24623217       0.56986270       0.31440545       0.03702779
N      -15.53674610      11.48017855      -0.32864708      -0.20816751      -0.41729874       0.75823018      -0.06491203      -1.54411240       1.79173160
O      -15.95063230      14.75961559       4.75337464      -0.77084889       0.53734680       0.68990168      -0.26760944      -0.30172417      -0.82373021
O      -16.75682255      12.78567866       4.55213521       0.00569275      -0.27466245       0.98179600      -0.30564403      -0.35712328       0.39498017
O      -15.56487854      16.48051494      -1.19125754       0.26014780       0.78313495       0.12389751       0.04137639       0.43547208      -0.68661430
O      -16.58813962      17.40203438       0.45941551       0.79750823       0.24144690      -0.54599261       0.21363793      -1.03800460      -0.91210581
O      -15.46291221      11.51166009      -1.53453791      -0.15141423      -1.00976491      -0.18130642       0.10365333       0.50797904      -0.60570297
O      -15.22740872      10.36161404       0.25155730       0.26319099      -0.18261164       0.31873862      -0.88791092       2.75510845      -0.49955391
H      -15.78623343      10.67078024       1.88223586      -0.04870386      -0.15246046       0.29653863      -0.14846291      -0.71015178       0.41875645
H      -16.43821048      11.30036568       3.43174857      -0.13503841       0.16535972      -0.12934157       0.39168475       0.12993514      -0.22220772
H      -16.52833052      17.20807015       2.26674888      -0.15013220       0.06552398       0.14358595       0.36471534      -1.41934350      -0.17095751
H      -16.25211463      16.23164191       3.69215789      -0.06182247       0.01205320       0.04176195      -0.13126291      -0.27670770      -0.74124728
H      -15.81817626      13.19059085      -2.07747560       0.10843221      -0.25144693      -0.18061983      -0.36559417       0.28664378       0.00032322
H      -15.98823499      14.95176951      -1.92464999       0.04013416       0.00194639       0.00085926      -0.03948872      -0.80118807      -0.16972880
C      -12.31282844      10.37020116       0.34841583       0.13474515      -0.34811591      -0.85500592       0.68638841       1.42412131       1.83374927
C      -12.28658223       9.16820496      -0.33295103       0.25790487      -0.68116002       0.22180746      -0.15180635      -0.95944705      -1.35310448
C      -12.15642470      10.35602228       1.77715455       0.01359430       0.94952359      -0.05077130      -0.76083258       0.62306190      -0.77465160
N      -12.34663040      11.53015163      -0.23297948       0.26514030      -1.11536739      -0.21408491      -0.01871886       0.67802534       0.19598567
C      -12.10672710      31.16649824      13.78072569       0.78079348      -0.61656940      -0.54051718       1.07191242      -1.51915374       0.47744307
N      -12.38393153       9.20254931      -1.74077471      -0.21889534      -0.44143729       0.61123620       0.25178599       1.86924085       0.21302435
C      -11.93030228      31.13140117      15.22273053      -0.49144725       0.01291387       0.03195121      -0.72042279       0.48330745      -1.67569794
N      -11.94666603      30.07708887      13.03287729      -0.90802853       0.26400011      -0.04621029      -0.12565744      -0.34118600       2.45683547
C      -12.08176349       9.11071070       2.40664135      -0.30857768      -1.05321439      -0.67253160       0.62406139      -1.22434395       3.08206926
N      -11.94216578      29.87756063      15.90914472       0.08249406      -0.03936956       0.46430408      -1.15219919       0.72160531       0.35505660
N      -12.03804571       9.02614513       3.72607407       0.12049737      -0.29594891       0.15925699      -0.19073923       1.25530779       0.10922590
N      -12.36588708      11.55425049       2.56500243       0.56630227      -1.21024705      -1.03037886       0.08767300       0.56756495       0.35465415
O      -12.71063733       8.19903196      -2.34681176       0.42377377       0.06281891       0.66971205      -0.40669662      -0.05975651      -1.25470771
O      -12.14644682      10.28871097      -2.31590005       0.27123156      -0.49348692      -0.14361491      -0.20162415      -1.40884619      -0.46785148
O      -12.45259929      29.75815837      -9.72557349       0.49471845       0.23753338      -1.49559995       0.42759635       0.15155874      -0.53616450
O      -11.52368805      28.90998729      15.31602059      -0.42706144       0.38287528       0.01687362       0.63938387      -1.15304757      -0.43515297
O      -11.89849219      11.60809678       3.71541962      -0.17613206       0.57750058      -0.30729496      -0.36010450      -0.08306587      -0.98910493
O      -12.98784069      12.53342383       2.09212392       0.05560014       0.08723072      -1.25791778       0.75201709      -1.06973853       0.33285270
H      -12.33817898      12.32674042       0.38890253      -0.02482865      -0.16240392       0.15789646      -0.34359190       0.29292121      -0.72796668
H      -12.33002555      11.56754746      -1.24033239       0.24078670      -0.03977979       0.35100612       0.03239945       0.39809849      -0.05308624
H      -11.73492425      29.22691080      13.58087367      -0.30684230       0.02696102      -0.03537355      -0.19665336       0.36674682      -0.91348967
H      -12.22669882      30.09391608      12.07628003      -0.23294861      -0.13319582      -0.20757493       0.05991564      -0.35243922      -0.29995943
H      -11.98782088       9.91411025       4.25752900      -0.06927556       0.09770523      -0.29466986      -0.06565198      -1.17298980      -0.14819791
H      -12.08347935       8.10319791     -22.62180841      -0.11184512       0.00704110      -0.16149720       0.01997641       0.67112255       0.19294764
C       -8.61740165       7.94113388       1.42416193      -0.18075497       0.56691783      -0.08301106       0.45221027       3.77817146      -1.03709877
C       -8.57863367       9.19645259       2.19353709      -0.18240950      -0.48963113      -0.15201145      -1.31494314      -2.15154349       0.70909250
C       -8.71288579       8.10110209      -0.00839375       0.16365356      -0.26447088       0.47609038      -0.06928288       1.30508120       0.83906818
N       -8.46027077       6.84534415       2.07128796      -0.91312654       0.08092281       0.41062183      -0.16487055      -2.07336339       0.77290324
C       -8.75332198      10.48826475       1.64396929      -0.50155382      -0.12253529      -0.52734226       0.07391596      -2.59282378      -2.35412555
N       -8.72492237       9.08771796       3.64668914       0.96132299      -0.13992720      -0.44076209       0.01214702      -0.00824859      -1.83780565
C       -8.92883529      10.55076709       0.20150105       0.62545509       0.44344710      -1.34280657       0.53734304       0.80232883      -0.98942423
N       -8.72373293      11.54526019       2.32893860       0.20287108       0.52564613      -1.56099711      -0.57425955       4.21981589       1.68768722
C       -8.91105156       9.40711355      -0.65773246       0.67963148       0.18199439       0.43591744       1.33383850      -0.07130958       1.49845920
N       -8.75650399      11.83518683      -0.46103990      -0.02698688      -0.40744767      -0.09967139      -0.47217928      -0.02927863       1.05926447
N       -8.86363518       9.52492966      -1.95517889      -0.29676678       0.33132543      -0.08851242      -1.01868058       0.10683868      -1.07479536
N       -8.55162665       6.97700458      -0.80279802       1.22187071      -0.33460103      -0.00855987      -1.72890492      -0.41263486      -0.78190027
O       -8.30955729      10.03590192       4.28102882      -0.36711301       0.66219903       0.32760916       0.38418759       0.63082570       1.49367759
O       -9.27612389       8.12780009       4.16239459      -0.64638344      -0.42915144      -0.00847160       0.13437797      -0.11815653       0.27352100
O       -8.34410839      11.90040814      -1.61900723      -0.46667150      -0.40208083      -0.11162056      -0.25308032       0.47998924       0.54411062
O       -9.02580746      12.86554271       0.18902109      -0.47617201       0.24298721       0.84054412       0.09132282      -0.37283357      -0.92321234
O       -9.14947955       6.97904115      -1.89856744      -1.05054240       1.12782431       0.63330083       1.00671451      -0.78841638       0.46520565
O       -7.96834423       6.00668045      -0.33934726      -0.40559509      -0.25473615      -0.60402912       0.23831056      -0.44090212      -0.38316266
H       -8.36572970       5.93715889       1.67519593       0.25964933      -0.15464941       0.00062342       0.06508463      -0.17952010      -1.02336719
H       -8.66935551       6.80010242       3.04826689      -0.10050787       0.02523791      -0.02872718       0.09534656       0.28152127       0.54205397
H       -8.88954421      12.45908009       1.86056958      -0.09079905       0.04073938       0.00140436       0.22320042      -0.87143473       0.37068439
H       -8.68917496      11.55002448       3.34334754       0.13768589      -0.07053154      -0.31625448       0.33219796      -0.40578530      -0.41322813
H       -8.99317752       8.64697219      -2.45756239       0.03017474      -0.18707678      -0.00603878       0.11626697       0.18971704      -0.35089450
H       -8.91682988      10.43810045      -2.47483986      -0.41700729       0.08792861       0.04382279       0.31484002      -1.62594463       1.17861951
C       -4.89856244       5.05957579       0.79756726      -0.14237783      -0.24236020      -0.00622096      -0.52460930      -1.35564297       0.49685756
C       -4.99782550       3.76532578       0.18237655      -0.99440126       0.08813247      -0.57831283      -0.15920069      -0.22233461      -0.02900047
C       -5.06471295       5.12143004       2.22687151       0.07073573       0.94847422       0.69362420      -0.34373983       1.56818036       0.47446922
N       -4.72783827       6.10787896       0.05181030       0.25326648       0.91080495       0.32756146       0.38634153       0.26135476      -1.39759253
C       -5.20977210      25.85639787      14.51384928       0.56260422      -0.46569757      -0.10537559       0.36187975      -0.35112432      -0.65677110
N       -4.92355234       3.70698044      -1.26541349       0.32810631      -0.35521746      -0.58518686       0.05568741      -2.34682977       0.73336240
C       -5.18572878      25.96247984      15.93184714      -0.56793850      -1.27456127       0.38061894      -0.62334634       1.99220589      -0.45168870
N       -5.30067796      24.67699478      13.91197916       0.17769053      -0.03721203       1.34912970       0.33351849       1.64991090      -1.06175548
C       -5.18114752       3.97366579       3.07517103       0.30365530       1.18821631       0.29907844      -0.00389862      -0.21368973      -1.38113341
N       -5.51400682      24.84554942      16.71022591      -0.15729265      -0.91034099      -0.05880245       1.33521118      -1.48142142      -1.08488691
N       -5.35233683       4.07913700       4.37407378       0.21956705       0.05416110       0.45143278       0.43376894       2.49654380       0.51107401
N       -5.26199078       6.46903541       2.77846037      -0.21027307       0.53589762       0.25419236      -0.08912220      -1.24171316       1.10178070
O       -5.18656668       2.66477127      -1.93112492       0.54431091      -0.26439477      -0.23747909      -0.04909243       0.52564163       1.25486457
O       -4.50345206       4.66448660      -1.86738632       0.16107196       0.22836972       0.47477920       0.52251728       1.08184901      -1.44521578
O       -5.02643335      24.70612429      -8.96178121       0.16438786       1.05937843       0.22284546       0.20064976       0.50813399       1.86326305
O       -6.12447654      23.93632427      16.17937011      -0.18498733      -0.91957609      -0.23087307      -1.06574192      -0.74272429      -0.15207764
O       -5.66350265       6.67716802       3.93372113       1.28941474      -0.13120046       0.48295420      -0.08719805      -1.34181661       0.11895488
O       -5.01136443       7.43085701       2.09356447       0.34820420       0.53784600       0.08607748       0.18640380       1.43673744      -1.19606900
H       -4.87251167       7.00461977       0.42981482       0.03400034       0.08179350      -0.10831329       0.15587548       0.90728572       0.36907096
H       -4.55648274       5.96623356      -0.95638560       0.09263010       0.16995441      -0.23384424      -0.29032694       0.33757466       0.91144196
H       -5.34436096      23.83920380      14.39377760       0.05056893       0.07495846      -0.09473712      -0.38412706      -1.49407126       1.03606297
H       -5.21425281      24.67376197      12.91589317      -0.02879496       0.25800383      -0.07958482      -0.18293454      -0.16691812      -0.33788119
H       -5.21808769       5.03072874       4.77803631       0.33878155       0.22283787       0.03956358      -0.52486145      -1.13014607      -0.44671568
H       -5.13102602       3.34477403     -21.77775787      -0.45287043       0.02813291       0.31546457       0.01845877      -0.95548619       0.35146338
C       -2.13174020       6.90988145       3.33817674       0.58756319       0.94008721      -0.41200795      -0.11182747       1.32464610      -0.28513695
C       -2.01295542       8.19644169       3.96655703      -0.56312598       0.21282784      -0.00594089      -0.42631835      -0.83113381      -0.29533039
C       -1.99787749       6.90514238       1.90309803       0.31179233       0.81170015       0.14272517       0.89690851      -0.93421310       2.05138645
N       -2.40178504       5.81093018       3.99520107       0.00495390       0.20893690      -0.28803841       0.04831712      -0.34795108      -1.16737595
C       -1.71637384       9.39918771       3.22565212      -0.76005887      -0.67863313      -0.12947804      -0.20588072       0.03009184       1.29386134
N       -2.18734120       8.20801555       5.37720038       0.56708043       0.47259751       0.83866251       0.46371846      -0.95105910       1.18498261
C       -1.71003251       9.34153463       1.81224955       0.55173373      -0.41733881      -0.94771799       0.30379196       0.96012463       1.16712488
N       -1.56912594      10.54094622       3.87413890       0.50335224       0.15675496       0.35844327       0.04875243       1.29707303      -0.79851929
C       -1.92785726       8.10947185       1.18744097      -0.05697267       0.36491467      -0.95352555      -0.95891235       0.35233224      -2.49552890
N       -1.60732992      10.59216065       1.08764213      -0.24456064      -0.20664002       0.29226724       0.07935731      -1.17184871      -0.56441946
N       -2.20695919       8.05903270      -0.10802413      -0.26856024      -0.12687751      -0.12085541       0.45085335      -0.43171866      -0.86964143
N       -1.65414045       5.71692178       1.27815592      -0.50079619       0.65714038       0.39689572       0.58556969      -2.57362618      -0.81121859
O       -1.65726929       9.06915284       6.04039532      -0.36489874       0.50119055      -0.15949491       0.88496905       2.42267837       0.13130689
O       -2.77820439       7.32892073       6.02999888      -0.64847384      -0.29005090       0.39967065      -0.79525993      -0.54219864      -1.41111604
O       -2.04319245      10.57703890      -0.06209106       0.97122277      -0.47159521       0.41368970      -0.07540222       0.70077566      -0.27347887
O       -1.06273964      11.57706168       1.55830135       0.01011834      -0.65692030      -0.12803498      -0.17669876      -0.16282191       0.23765034
O       -1.25306041       5.71569590       0.10327853      -0.27453713       0.27393986      -0.58683118      -0.31121285       0.11274588       0.70310175
O       -1.70218097       4.59078768       1.88776795       0.16699858       0.12362249      -0.41286888      -0.07626699       1.64725387      -0.81858032
H       -2.36057180       4.97899830       3.41673809       0.14426188      -0.14656585       0.09621908       0.03011806      -0.10893748       0.66191974
H       -2.62918410       5.81372603       4.96136431       0.16956873      -0.02526948       0.01705653       0.02370347       0.10530526       0.62097185
H       -1.34628796      11.42973633       3.39431257       0.04309413      -0.19947732      -0.09375949      -0.17454006      -1.10901889       0.21768417
H       -1.85600488      10.65961768       4.81490180      -0.03619251       0.41842096      -0.17339981       0.26318143      -0.38245282       0.64703474
H       -2.19227473       7.16870945      -0.62486766       0.08466722      -0.16963687      -0.13723788      -0.05607513       0.93867003       0.77101843
H       -2.38907305       8.91680931      -0.60177618       0.08983906      -0.12324854       0.05312331       0.16156135      -0.09749243      -0.02937659
C      -19.68330371      23.17189681       5.13582495      -0.11926484      -0.19810326       0.55298487       0.26090377      -0.77106019      -0.30539113
C      -19.65649110      21.87963819       4.56071966      -0.40457215       0.39662039       0.18991523       0.43024715      -0.62415046       0.03634860
C      -19.56571967      23.11462615       6.55476877       0.06414516       0.26697338      -0.91782592      -0.30397723       2.03330797       0.40861207
N      -19.81753532      24.29803878       4.43033549       1.41281640      -0.31400956       1.16702828       0.81987287       0.13047400      -2.24545503
C      -19.53502126      20.66156958       5.36886842      -0.21527646      -0.38366594       0.03998589      -0.82283066      -0.65117370      -3.60225947
N      -19.51280911      21.80854595       3.11531465       0.00768330       0.32235392       0.53806744      -0.13777633      -2.36709473      -0.84462628
C      -19.39696815      20.72405761       6.74596299       0.43572056      -0.77472425      -0.38878381      -0.22964617       0.36179333      -0.40544629
N      -19.65560202      19.47758872       4.73881291      -0.28800611      -0.79805515       0.27365886       0.59889313      -1.08889457       0.87692070
C      -19.41572373      21.94903994       7.37673046      -0.24530775      -0.45069763      -0.03779526      -0.54996820       2.36038359       2.17903328
N      -19.21753282      19.55037208       7.45728249      -0.68149562      -0.73736347       1.04434383       1.43364939      -2.16257383       3.34255413
N      -19.36525086      22.08007015       8.72983969      -0.35151480      -0.47248595      -0.76514666       0.18693198      -1.43447970      -3.66320690
N      -19.64524009      24.41196849       7.18403570      -0.75718263       0.05802013      -0.43103002       0.37461785       0.44555966       2.33031368
O      -20.03983735      20.87672133       2.45829493      -0.17079698      -0.13194787      -0.62715394      -0.28771003       0.53968579       1.24099780
O      -18.75820001      22.56080320       2.54741698       0.92250839      -0.50135847      -0.43354426       0.36189247       1.51938798       0.17908671
O      -19.53447588      19.45244693     -18.09280261       0.26115150       1.31751311       0.61014239      -0.23910487       0.58017264      -2.02235702
O      -18.58928676      18.63444149       6.93047501       0.34284578       0.34563450       0.53948466      -0.60471779      -0.02077331      -0.33695684
O      -19.17295284      24.56525108       8.33391402       0.53333865       1.38700472       1.23198875       0.04676152      -0.42812486      -0.97005510
O      -20.17702488      25.37617343       6.65174256      -0.60629124       0.10855787       0.78190450      -0.16550586      -0.19645924      -0.44793717
H      -19.87743344      25.19113130       4.89550378      -0.10668960       0.00154763      -0.10245655      -0.06621490      -0.24641172       0.16649571
H      -19.55427666      24.41917727       3.40014786       0.02644667      -0.08513070       0.03761224      -0.62943182      -1.00220701       2.22830371
H      -19.46208989      18.55072920       5.20349597      -0.00869720       0.04360323      -0.23575052      -0.17683592       1.98219008      -0.51498857
H      -19.77766982      19.40784069       3.74444612      -0.12531467       0.29037434      -0.41010806      -0.19516926       0.31238167      -0.10884158
H      -19.45950545      22.96927934       9.10037476       0.08849200       0.29120175      -0.16060626      -0.07074828       1.74789051       1.04155440
H      -19.49167924      21.27014769     -17.51026905       0.03013585      -0.06604004       0.09054933      -0.09748363      -1.17971689       0.98740034
C      -15.79642006      20.53568439       6.46872473       0.27568198      -1.41552198      -0.08535926       0.52013541       0.31911320       0.32525404
C      -15.86412786      21.76920961       7.16522704      -0.35857876      -0.03976412       0.62147832      -0.02991367      -0.87829182       1.00672574
C      -15.83316495      20.58124585       5.02860174       0.52394296       0.08172704      -0.67398328       0.51017704      -0.93839205       0.26769298
N      -15.59755990      19.43207426       7.17904626       0.25617737      -0.31298859      -0.05793506      -0.22429571      -0.18143601      -2.59616191
C      -16.07890818      22.99964349       6.52976817      -0.18227345      -0.17774827       0.44525350      -0.09721465       0.57791721       0.32715225
N      -15.82824147      21.68416485       8.60462722      -0.62831044       0.62877402       0.03648764      -1.68226147       0.23998262       2.10094306
C      -16.22335104      22.97894697       5.12021748      -0.75903565      -0.56289794       1.13360619       1.52097750      -0.84008184      -1.49358684
N      -16.18245464      24.11913011       7.22858363       0.27662594      -0.40602373       0.10499542      -0.08732117       2.00927888      -2.70270657
C      -15.87350642      21.81555929       4.28174898       0.80936081       0.41052876      -0.46405042      -1.75440283       0.22880260       4.05714992
N      -16.41931844      24.20601221       4.46029288      -0.60828421       0.04237256      -0.19326955      -0.27850452       0.09005303      -1.11460304
N      -15.84421718      21.88704485       3.00600779       0.86534561      -0.63824320       0.27904393       0.33927873      -0.64360775      -0.35340251
N      -15.66633930      19.34646818       4.29491330       0.68901709      -1.39637337      -0.11509609       0.21813231      -0.82616676       1.15597236
O      -15.39660524      22.63303584       9.28997082      -0.23174144       0.61930226      -0.14757720       0.03546731      -0.55874054      -1.12221992
O      -16.39426659      20.72031587       9.20044114      -0.75242525       0.37624405      -0.65213973       1.14169164       1.30944664      -1.24508874
O      -16.05464061      24.38481145       3.27707498      -0.43401314      -0.71286437      -0.04600517       0.17133799       0.02578771       0.49861371
O      -17.02213356      25.07185433       5.04872984       0.88063961       0.07152491      -0.19557906      -0.40971844       1.26963208       0.38255189
O      -16.03506423      19.30941210       3.14445864       0.58689702       0.28057085      -1.04303763      -0.46232537       0.51767330      -1.66391281
O      -15.21244551      18.30590275       4.80862206      -0.09030654      -0.20629224      -1.39343904      -0.09044733       0.96448208       0.49468516
H      -15.70979401      18.59136059       6.64122435       0.30674490       0.49854241      -0.12506821       0.42390311      -0.42262778       0.29173529
H      -15.66635832      19.38431173       8.16761528       0.10342456      -0.10298565      -0.11173981      -0.24904699       0.11304564       0.65791222
H      -16.23196857      25.06755320       6.77052047      -0.11913764      -0.07648327      -0.06330536      -0.24659134      -1.80993426       0.50229239