1296
Lattice="-21.41059563707304 11.820155461113872 6.295633787077555 0.0 23.026821389341183 13.537877677510386 0.0 0.0 -26.877244264518453" Properties=species:S:1:pos:R:3:momenta:R:3:forces:R:3 energy=-1487867.7427336064 free_energy=-1487867.7427336064 stress="0.003888875794668712 -0.0007019941644121116 0.0010605510176481246 -0.0007019941644121116 0.0035529829849033695 -6.994235196109405e-05 0.0010605510176481246 -6.994235196109405e-05 0.003960237845347743" pbc="T T T"
C      -19.75478878      15.80071911      -0.07925076      -0.48041449       0.27176061       0.83597959       0.69639681      -0.44516560      -0.39679096
C      -19.70852965      14.54701373      -0.74093654       0.22879442      -0.04093138       0.69401058      -0.28665767      -2.45403042       1.02384448
C      -19.76779182      15.77612164       1.34945518       0.06016858      -0.30122770      -0.33868301       0.71146957      -2.01335112       0.21872289
N      -19.67625381      16.90961938      -0.77546423      -0.51092180      -0.31644304       0.65136859       0.23183164       1.80719717       0.60731486
C      -19.75769952      36.26385917      13.47822889       0.47910570       0.13191377      -0.85474215       0.07897293       2.32787542       0.24340779
N      -19.59707957      14.50640330      -2.14666415      -0.36850389       0.39151079      -0.85330312      -0.48210434       0.45614928      -1.33213102
C      -19.75801716      36.28317368      14.91623515       0.28840173      -0.26804375      -0.32973162       0.22564962      -0.42260531      -0.08808023
N      -19.74497867      35.15532781      12.81293930       0.05210919       1.19377287      -0.58205969       0.01073389      -0.62013194       1.38149168
C      -19.70628376      14.51541060       2.07243540       0.44176633      -0.43360819      -0.67689385      -1.03719703       0.41689195      -0.56158960
N      -19.68203883      35.00281742      15.59700390      -0.27589288       0.15056869       0.89560618       1.81090882      -0.67765156      -0.22538428
N      -19.80952469      14.52936356       3.38344718       1.21706181       0.19442239      -0.65456887       0.89468067      -1.21656234      -0.47857188
N      -19.75598195      16.97699028       2.05267711      -0.68593179      -0.42623952      -0.46070095      -2.04202196       2.43968780      -0.11716717
O      -20.21571715      13.66649137      -2.84047381       0.02382063       0.56596299       0.59104078       0.71105812       0.42664428       0.85050553
O      -18.90313430      15.37664887      -2.66807847      -0.23425792       0.26945032      -0.50272195      -0.19114467      -0.17777590      -0.46333562
O      -19.66586398      34.89704393     -10.04066012      -0.59244787       0.91563699      -0.87761531      -0.67068831       1.11504065      -0.44987102
O      -19.45686019      33.97062059      14.92370144      -0.38928031      -0.17868921      -1.70073788      -0.72019921       0.86613829       0.84295353
O      -19.24714693      17.15658599       3.16171178       0.78525816      -0.78671648       0.35105902      -0.19260292      -0.77226574      -0.83842342
O      -20.43376076      17.90964900       1.48861423       0.80829247       0.60401679      -0.63954640       1.53249140      -0.85857060       1.10700647
H      -19.71833715      17.80717716      -0.22348066      -0.06297219      -0.00359396      -0.20102175      -0.05133445      -1.35278484      -1.30266274
H      -19.36177606      16.91047012      -1.76335777      -0.17339720       0.17366143      -0.04780775      -0.42904757       0.05535959       0.99299996
H      -19.57337389      34.28209831      13.31749729       0.06415804      -0.04259759       0.07471955      -0.18559738       0.24247605      -0.21552803
H      -19.72034688      35.17979460      11.85361149       0.18696917       0.14436725      -0.30695449      -0.11849921      -0.01346101      -2.48352121
H      -19.65294104      15.40004632       3.83381038      -0.30593469      -0.07616037      -0.04384768      -0.06694602       0.39366618       0.84893634
H      -19.62132169      13.62353935     -23.05533569      -0.21342210      -0.22720477      -0.21847383      -0.51172147       0.62447696       0.36824316
C      -16.25810952      13.09742358       1.32839621      -1.00944301      -0.41502738       0.10132238      -0.30825914      -1.20782067      -0.51600473
C      -16.36260098      14.25451051       2.13734822       0.27012625       0.18855312      -0.37926265       0.29001097       0.18364470       0.89533216
C      -16.26149578      13.25677122      -0.10748805      -0.72291661       0.14833486      -0.83731850       0.43775884       0.26010806       1.42418388
N      -16.28943691      11.85135718       1.86116438      -0.03782863      -0.90746435      -0.45231797       0.34828571       2.17307976       0.10333002
C      -16.31186063      15.54794365       1.52292347       0.23815112      -0.05327869       0.12298174      -0.01514705      -0.26343207      -0.15489744
N      -16.36864485      14.17486321       3.64441945       0.94669265      -0.47901549       0.79351124       0.12731773       1.15968301      -2.33669330
C      -16.16918168      15.69363806       0.11022577      -0.50545070       0.18590582      -0.13094402      -0.52795181      -0.80525204      -1.32624453
N      -16.41949095      16.65563567       2.18776753       1.48300396       0.87498170      -0.61238689      -0.05113059       3.04149514       2.51368745
C      -16.17419406      14.52388192      -0.73831693       1.67836027       1.32121187      -0.71520331      -1.03760478      -0.65726916      -1.09307932
N      -16.16053681      17.01842362      -0.54869720      -1.50037097      -1.36647150       0.73050583       0.55995581      -2.72174237       1.24702237
N      -16.25972209      14.52233017      -2.09304047      -0.03887801       0.73251756      -0.64258555       1.34114021       2.91016435       1.37648894
N      -16.28253818      12.04204851      -0.88736445       0.32556118      -0.18225096       0.41001517       0.50091343      -0.40223584       2.19661859
O      -16.03574117      15.19438970       4.24247347      -0.17056130       0.36755834      -0.30642459      -0.03550061      -0.54032776       0.32858788
O      -16.72095560      13.15029233       4.19892268       0.57904093       0.92422878      -0.20821161      -0.07058815      -0.33843353      -0.03122461
O      -15.50536182      17.02234897      -1.57708103      -0.12870510       0.99551392       0.66866539      -0.12599371       1.11864495      -0.89745536
O      -16.72579309      17.97318394      -0.04765450      -0.52553079       0.85575705      -0.85372864      -0.03597762       0.52980191      -0.42803663
O      -17.03090480      11.95682000      -1.82279605       0.80907828       0.78348963       0.26706010      -0.08175664      -0.06163943      -1.36339008
O      -15.61989228      11.08213604      -0.43457580      -0.34476758      -0.06235944       0.23228727      -0.33695462       0.47575825      -1.41479131
H      -15.82218805      11.15057997       1.32081840      -0.10962338       0.01886018      -0.22515690      -0.12983792      -0.39006504       0.27364306
H      -16.28020731      11.86030596       2.86766992      -0.02207835       0.22774501       0.02443485      -0.03418010      -0.66869128       0.07278902
H      -16.59945527      17.54586434       1.68094409      -0.05278847       0.04677028       0.18522383       0.29655149      -1.02424345       0.38127747
H      -16.31046211      16.78222263       3.23538765      -0.02673742       0.06543769       0.20729489      -0.27661671      -0.96858164      -2.09458348
H      -16.50272850      13.77032951      -2.67303982      -0.01988566       0.22154800      -0.02331079      -0.27391033      -1.18697746      -0.27312680
H      -16.02067007      15.38803143      -2.57537533      -0.01636873       0.03504437       0.22937697      -0.32201681      -0.60763616       0.38270412
C      -12.39752592      10.18685784      -0.34424160      -0.55500180      -0.14847816       0.33995677      -0.91276108       2.30345750       3.19191932
C      -12.31083499       8.96285004      -0.96275356      -1.32582833      -0.04765328      -0.20163253      -0.69615164      -3.52902005      -0.74408005
C      -12.39968414      10.17554482       1.12727413      -0.26709678      -0.35519230      -0.74324675       0.64342368       1.36519962      -0.38064005
N      -12.51721889      11.34942338      -0.95550359       0.23384457       0.54376416       0.04285052       0.35962524      -0.42204268      -0.33193387
C      -12.48426806      30.71303961      13.30605095      -0.96972132      -0.14202224      -0.04852862       0.56968350       1.50565427       2.36984317
N      -12.34370709       8.87885715      -2.38094589      -1.62993849       0.30303860       0.43363449       1.98752906       3.06462803      -0.97639986
C      -12.49219818      30.77912283      14.80407409       0.64559991       0.49682285      -0.12666515      -0.08558496      -0.20421910      -1.55283930
N      -12.53132877      29.59459525      12.67231708      -0.00521967       0.95020553      -1.08975272      -0.20510618      -0.86420637       0.18783463
C      -12.32909889       9.04380230       1.93961373       0.93496623      -0.23826621       0.37100370       0.25529260      -2.75333464      -1.58555288
N      -12.53390738      29.57486894      15.57829137       0.08499017       1.04088851      -0.57594797       1.47434405      -0.12434737       0.34070245
N      -12.04979912       9.01138123       3.19274861      -0.23369566       0.07682577      -0.71121065       0.21965602       2.52227956       1.92227685
N      -12.28050931      11.42009705       1.85514519      -0.40592138       0.28005701      -0.63223487       1.34202871      -0.33675325       2.03322061
O      -12.69148706       7.90768311      -3.02599970       0.82237728       0.40857601       0.06679441      -0.58108009      -0.54175422      -0.01561297
O      -11.87407551       9.90017073      -2.98071697       0.42538848      -1.00157445       0.67080499      -0.88769844      -1.48256246       0.70593056
O      -12.54933414      29.63533827     -10.03396204       0.36089178       0.75751378       0.26998415      -0.59102969      -0.93694209      -1.84154601
O      -12.38394014      28.46837159      15.01428663       0.47653723      -0.29990698      -0.23592287      -0.69211831       1.24140732       0.20494669
O      -11.50472444      11.47890011       2.87951370       0.03763842      -0.14719811      -0.31876713      -1.92555986       0.10523320      -2.41278613
O      -12.96505645      12.36751265       1.52171143       0.78336643      -0.73566570       0.59668089      -0.02342733       0.48291164      -0.52787168
H      -12.69392977      12.24014092      -0.51262299       0.09051176       0.19860015       0.21315112       0.10702357      -0.40028891       0.26315636
H      -12.30089418      11.32942916      -1.93576446      -0.26749279      -0.19944874      -0.23255117      -0.10548006       0.30442647      -0.48789997
H      -12.49811610      28.71647622      13.22015574      -0.12215828       0.17978870       0.41220418      -0.07063711       0.60740408      -0.43322624
H      -12.58631994      29.60120661      11.65559372      -0.20275652       0.18722947      -0.08957464       0.14574340      -0.39561510       0.23108039
H      -11.95962381       9.92214578       3.68109833       0.13376253      -0.13625209       0.08562452       0.08784805      -1.18297127      -0.40501281
H      -12.08411378       8.14937407     -23.15745691       0.15642195       0.23155866       0.34916581      -0.28675380       0.07408438       0.00123403
C       -8.88213724       7.68032507       1.17427635      -0.69601540       0.94033673       0.69951522      -0.21501612       0.78773800       0.42383726
C       -8.88926134       8.97949098       1.90311231       0.13238332       0.74287038      -0.15815483      -0.55832988      -0.60747867      -0.04557627
C       -8.77697696       7.72004745      -0.24463301       0.33918820      -0.32313608       1.15753758       0.10318487      -0.86847238      -0.79932349
N       -9.04511138       6.54341163       1.81451289       0.51627193       0.91186567      -0.68830754      -0.23859651       0.91768197       1.12966497
C       -8.94498595      10.23424165       1.17807730       1.08247600       0.70760545      -0.23501141       0.96401103      -0.58098182       0.76202146
N       -8.91223082       9.00287582       3.34624182       0.06071533       0.89374332       0.19081617       1.87608022      -2.50425031      -0.51556725
C       -9.02435471      10.09835144      -0.22148100      -0.14962630       0.63168815       0.37943336      -0.31060924       3.37660127       0.53170588
N       -8.76574966      11.43621614       1.73779816      -0.92041742      -0.32369629      -0.76675637      -0.78996943      -1.45608335      -0.29921740
C       -8.83321750       8.96801629      -0.97235134       0.42773940      -0.84673526      -0.44608291      -0.80741248      -2.91186573       1.73918389
N       -9.10782748      11.36252148      -0.92404580       0.56293878      -0.82256237       0.04196437       0.08879653      -1.16187183       0.68977809
N       -8.89129082       8.96986210      -2.24578893       0.18428995      -0.02790969      -0.09020428       0.28035240      -0.69987258      -3.21184585
N       -8.74882076       6.44647912      -1.00357934       0.00425014       0.37266461       0.15795215       0.27143575      -0.89213615       0.38046954
O       -8.79411630      10.06792191       3.91507331       1.17261421      -0.74693444       0.08454982      -0.45860988       0.98148876       0.93116538
O       -8.82705156       7.92060465       4.00478040       0.34032424      -0.73269417       0.05897253      -0.88687035       1.50153077      -1.02376652
O       -8.65771907      11.40891145      -2.04406000      -0.40144046      -1.05828130      -0.02104242       0.50082115       0.87625656      -1.66996984
O       -9.59859322      12.33522686      -0.39208757      -1.00481428      -0.71031426      -0.05253413      -0.84466986       1.02768280       0.09982653
O       -9.27627633       6.33604574      -2.13951383      -0.13787649       0.77015861       0.21045067       0.84148058       0.74047147       1.67507265
O       -8.20323976       5.45308128      -0.45747271       1.17919581       0.43631661      -0.06679842      -0.95025029       1.63801287      -0.88945404
H       -9.09956045       5.66980567       1.33144325       0.10961836       0.22884539       0.22919545       0.17550828      -0.26102779      -0.00167568
H       -9.16101163       6.58255146       2.84639571      -0.01850529      -0.26720863       0.05235501       0.31295094      -0.13052963      -0.98131647
H       -9.12724429      12.26037920       1.23999008       0.21796475       0.04781854       0.00499461       0.66025929      -0.45250732       0.71195456
H       -8.71996959      11.34666995       2.73663245       0.00342508       0.29439297       0.05136558      -0.02942131       0.71547806       0.27405043
H       -8.80071409       8.05545776      -2.76065061      -0.03413560      -0.32152414       0.21003811      -0.41172708       1.62776585       0.55916196
H       -8.98687545       9.90153880      -2.67829944       0.05691562       0.09188385       0.14749683       0.36907294      -1.31700638      -0.49131815
C       -4.92336249       4.90691932       0.45045173       1.10970966      -0.10708022      -0.18742850      -0.87280177       1.77574936       1.51395817
C       -4.96136469       3.65159627      -0.16527850      -0.23176472       0.67725001      -0.42443577       0.24984561      -1.72689719      -0.46848358
C       -5.26906759       4.98594529       1.83645180       0.82062294       0.24684355      -0.40239769      -0.55589677      -1.52880390       1.44207809
N       -4.74590457       6.08939425      -0.12740288      -0.80732731      -0.16971954      -0.61222524       0.53179960      -2.76109211      -2.64823485
C       -5.17520553      25.42589849      14.08215141      -0.12285637       0.41249272       0.35146586      -1.35951364       1.37445083       0.27039919
N       -4.77940766       3.57109831      -1.57418098      -0.76032617       0.32050897      -0.23806367       0.27927242       0.40010095      -0.45085700
C       -5.46115146      25.53004948      15.48595288       0.23732779       0.04637880      -0.80091547      -0.09156382       0.20081658      -0.09523969
N       -5.20697278      24.28759219      13.43031955       0.29233468      -0.02122568       0.27410502      -0.83352943      -1.11783846      -1.34088604
C       -5.51613427       3.75179203       2.62460591      -0.15124628       1.00815812      -0.25449353       1.24293295       1.61474325      -0.88381592
N       -5.88966945      24.37144847      16.19578534      -0.10448237      -0.49043247       0.79754407       0.35945505      -0.88343676      -1.37196120
N       -5.65278768       3.77221187       3.93238577       0.14237260       0.64161711      -0.08995215      -0.31398539       0.76165080      -0.41441556
N       -5.57313706       6.23996089       2.47945538       0.12145933       0.70959512       0.75854086       1.19952553      -0.67342317      -1.00333199
O       -5.21864738       2.62323960      -2.23748373       0.34250399       0.45482004      -0.82240943      -0.26990955      -0.48084661       0.02250991
O       -4.18643360       4.45973771      -2.16297605       0.37333805       0.69861951      -0.01325161       0.24424518       0.93820420       0.07996347
O       -5.84797192      24.28358305      -9.45806836      -0.97937173       0.37174800       0.74220407      -0.01130969       0.12807565       0.43700166
O       -6.29112937      23.41766901      15.52186976      -0.60770333       0.23785067       0.31842761       0.08926499      -0.10267839       0.59733655
O       -6.22589206       6.20147181       3.50616328      -0.60732114       0.14670109       0.74018675      -0.05583108       0.92161545       0.23662874
O       -5.12004465       7.32013906       1.99291376       0.72980861       0.48895660      -1.10270040      -0.99209275      -0.68440692       1.23667864
H       -4.64734313       6.88147612       0.42303392      -0.13948327       0.05710724       0.12975828      -0.23059016       1.48056879       0.77538749
H       -4.69281826       6.13936677      -1.13167361      -0.24689170       0.09266813      -0.00210936       0.27603585      -0.00520987       0.14958634
H       -5.51338275      23.42387158      13.93578008      -0.14553306      -0.21075848       0.20319241       0.43547038       1.23078604      -0.85431303
H       -5.39522615      24.36986513      12.38939671       0.09544337      -0.15041619       0.12541346       0.77665996      -0.52122290       1.96511192
H       -5.66876369       4.59492969       4.48121218      -0.13565429       0.10362809       0.14033593      -0.09998145       0.87817496      -0.16865589
H       -5.76305873       2.93095703     -22.46874694       0.02859532      -0.12268851      -0.03075794       0.07873257      -1.39725117       0.84174474
C       -2.25418811       6.89263571       3.08583438      -0.34851452       0.38386650       0.07815549       0.10894308      -2.22427621      -0.10092762
C       -2.19362725       8.16911658       3.68614443      -0.20548075      -0.39900091       0.05249192      -0.20776488      -0.29639297       0.09258626
C       -1.90581973       6.82469637       1.72296256      -0.23321839       0.37569407       0.07130717       0.54832885      -0.91149804      -2.20381746
N       -2.59479896       5.76210326       3.74961444       0.01562690       0.21135178      -2.06528461       0.18820238       3.25952880      -0.96673841
C       -1.83058166       9.37171734       2.99469963       0.71014973       0.42578886       0.03370166      -0.07155472      -0.40337030       0.28007935
N       -2.51507245       8.23778137       5.02863032      -0.33190759       0.02366487       0.26900279      -0.11316200      -0.35215872       1.31988542
C       -1.72339922       9.29390159       1.57240488       0.58418245       0.16459856      -0.38086393      -0.88284200      -0.79555238       1.32191377
N       -1.63035633      10.48647186       3.66160325      -0.24637443       0.66043743       0.19114458      -0.01160653      -0.56482025      -2.49579611
C       -1.76835529       8.00445059       0.93987231       0.37571634       0.72287644       0.17717072       1.03065362       0.08001534      -0.89191829
N       -1.80381808      10.46960922       0.81863548      -1.35221756      -0.42298766       0.43549039       0.53520229       1.18583400      -0.40476562
N       -1.49634914       7.98301835      -0.36463820      -0.69383478       0.14434251      -0.48310676      -1.08422220       1.03130548      -1.46409074
N       -1.70448100       5.53345012       1.01861389       0.13409036      -0.80912235       0.33740283       0.31280099      -0.22107566      -0.23930191
O       -2.53280381       9.32950756       5.58990509       0.64418783       0.99453286       0.11893184      -0.16770522       0.36922028       0.84772537
O       -2.78561187       7.21887617       5.69130969       0.66224778      -0.15525190       0.21218941      -0.19609344       0.69901275       0.03346575
O       -2.25692310      10.41314070      -0.32039759       0.49911203       1.13846517      -0.81349162      -0.46988387      -0.20165199      -1.17982015
O       -1.43333343      11.56880517       1.24150830       0.63997958       0.82573879       0.37885941       0.28771763      -0.49044335       0.86427418
O       -1.37822251       5.43933265      -0.19847526       0.06327667       0.76151165       1.32885935      -0.65173140       0.67737041       2.32318334
O       -1.81999270       4.49128593       1.68858510      -0.08846345      -0.18150126      -0.27164929       0.10710034       0.70098789      -0.61904214
H       -2.41932161       4.89970162       3.34240912       0.14265490      -0.13593758       0.04337779      -0.04349014      -1.49291580      -0.62373967
H       -2.97317153       5.95345971       4.64325876      -0.07743350      -0.45394726      -0.15392110       0.06999376      -0.72348835       1.02023061
H       -1.49863832      11.26204563       3.06621076       0.30503287       0.11001993       0.34501298       0.52203065       1.30537163      -0.23213227
H       -1.75620365      10.56894529       4.62156367       0.10204190      -0.17341573       0.24466876      -0.19225416       0.11163279       1.46827150
H       -1.38893532       7.12196418      -0.91696008      -0.23514005       0.14906735       0.21372645      -0.32837357       0.44605825       0.92659944
H       -1.79673767       8.85950057      -0.87176411       0.21818120      -0.16578054       0.03794753       0.86485796      -1.58393326       0.64857772
C      -19.71596553      23.42187126       4.42622310      -0.45262009       0.56078018      -0.58376769       0.07557708       0.50445836      -0.15141351
C      -19.51839520      22.22029231       3.71344768       1.17760149       0.50516482       0.38220802      -0.93934249      -3.45662674       0.76499753
C      -19.80133563      23.32150065       5.84563068       0.50852168      -0.81652032      -1.21731490       0.45275274       0.56198990      -0.45457178
N      -19.80626532      24.57926049       3.77363451      -0.36389563      -0.15109235       0.24590098       0.93201629      -1.79385787      -1.45083207
C      -19.67368860      20.90942646       4.38757165      -0.59682272      -0.13192391      -0.25436487      -0.31670880      -0.16920870      -0.50443402
N      -19.42775552      22.17034544       2.30609784      -1.17026000       0.64783526       1.69437078       1.56819349       1.48193289      -0.42007265
C      -19.80038191      20.91597703       5.82398743      -0.00548623      -0.77980886       0.18138024       0.76791598      -1.86033440      -0.76836065
N      -19.72570386      19.75176101       3.71930721       0.34216008       0.26350978      -1.32236726      -0.19821435       1.41742584      -0.76702239
C      -19.74018548      22.09343364       6.56253761       0.90244093      -0.44210553      -0.39576833      -2.21902977       0.58244188       2.46187011
N      -19.85355927      19.61352854       6.49457053      -1.46003357      -0.77972434       0.09192074      -0.23721761       0.58534533      -0.79476213
N      -19.97413018      22.04754947       7.91189798      -0.20601818      -0.27100063       0.07057554       0.71357204      -0.09532236      -2.90465094
N      -19.78184843      24.55552337       6.54893107      -0.02370675      -0.23989059       0.26805135       0.50867260      -0.42177877       1.21819232
O      -19.79937570      21.23825398       1.60091592      -1.20849545       0.89590745      -0.05197209      -0.42250047      -0.21246315       0.45452249
O      -18.80893097      23.13339504       1.80564773       0.11488019      -0.38341124       0.51283540      -0.58234799      -0.11994136      -0.25454837
O      -20.15797878      19.47966869     -19.21206051       0.88984895      -0.30553429      -0.13543358      -0.22708801       0.86808314       1.41174659
O      -19.64345997      18.60902565       5.84109026       0.20522921      -0.96214261       1.48422870       0.49541684      -0.94676027      -0.47417340
O      -19.26566023      24.58024272       7.65563950       0.32570411      -0.38242827      -0.32112291       0.12778747      -0.25949677       0.54877427
O      -20.24102598      25.57375013       6.06216186       0.09972923       0.54342473      -0.13865146      -0.74517226       0.81888854      -0.79537087
H      -19.98958660      25.40320552       4.28983758       0.02380876       0.01062870       0.48541117      -0.03078609       0.93537257       0.00143320
H      -19.41551589      24.53960512       2.80291040      -0.31640156      -0.10240314       0.20577936      -0.64881436       0.57834786       1.17063383
H      -19.81840314      18.86860147       4.25012607      -0.29931578       0.23148740      -0.04990022       0.33887659       0.74571412      -0.58692260
H      -19.73160448      19.78453195       2.68324717      -0.18661300       0.12524287      -0.08054007      -0.06779631      -0.17935625       1.26870942
H      -19.83371141      22.88313995       8.41251731      -0.12774520       0.10211026       0.04070051       0.19139304       0.68146293       0.79123526
H      -20.02031861      21.13771004     -18.54619010       0.10960541       0.02337054      -0.34593478       0.04641545       0.10591577       0.41048372
C      -16.46936979      20.83581053       5.65936426      -0.63213278      -0.84301577       0.01750624      -0.93922465      -0.54077646       2.77985291
C      -16.57227431      22.11263447       6.40096864       0.51871874      -0.04652556      -0.39969030       0.38396575      -3.70703330       0.00254092
C      -16.31157675      20.86264553       4.29644032      -0.89400233       0.17457145       0.54780056       0.23475040       0.30141956      -3.41352534
N      -16.64441445      19.66102564       6.29188292      -0.44652884       0.02987346      -0.23728803       0.06356839       1.09873216       0.01850401
C      -16.36990333      23.27281410       5.71151732      -0.79929098       0.46878790      -0.09236274       0.64390974       0.97035211      -1.93008545
N      -16.68225149      22.06986576       7.83236434       1.21771074       0.28388710      -0.26632589      -0.29072667       0.21994947       0.34380163
C      -16.12503436      23.28273738       4.25536863      -0.11490027       0.47767465      -0.33156679      -1.32992918      -0.93630995       0.24609594
N      -16.36455830      24.39910040       6.33421502      -0.30659324       0.23203170      -0.42423636       0.03000977       3.62673991       0.47258804
C      -16.13313592      22.05292652       3.48440197       0.67758524      -0.09785493       0.24527768      -0.50141633      -0.12111275       2.54670251
N      -16.23297918      24.49597537       3.54380820      -0.73482465       0.98057410      -0.19868616       0.83742675       0.56041561       0.44323875
N      -16.03876638      21.95839850       2.19290851       1.08944466      -0.37881114       0.60237091      -0.04843782      -1.44222080       0.32664127
N      -16.35792711      19.61989606       3.52223397       0.02837830       0.14836942       0.18804644       0.56639975      -1.93859075       1.18633938
O      -16.25975284      23.01952563       8.51525315      -0.55402443      -0.09391908       0.41498589      -0.12520294      -0.66039528      -0.36782447
O      -17.23210428      21.09969963       8.37184178       0.63841884      -0.82931036       0.34654106       0.51543636       0.41371792      -0.36112683
O      -15.81113176      24.47774439       2.39112198      -0.50692110      -0.31463819       0.05832688      -0.11985891       0.69057775      -0.60524442
O      -16.65237931      25.54434168       4.06677282       0.34965997       0.35853781      -0.42061598       0.03843079      -0.74867614      -0.43551354
O      -16.94775243      19.48224833       2.44564367      -0.49474675      -0.59847046      -0.55668834       0.64499031       0.73518141       1.00648582
O      -15.77241465      18.64307435       4.07550005      -1.01806145       1.20609982       1.52632594      -1.00164565       1.13019567      -1.13470082
H      -16.49613492      18.83517050       5.74060632      -0.11652385      -0.04727093       0.01295461       0.09825186      -0.21363433       0.42926805
H      -16.94514452      19.63307525       7.26953838       0.14749432      -0.16054750      -0.15572459       0.34638770       0.11394544      -0.59971006
H      -16.43014328      25.29097424       5.80086769      -0.09542392      -0.02861165      -0.37698116       0.18542675      -1.09658551       0.53957964