1296
Lattice="1706.3547784300197 2523.2961901305393 -174.86180655179086 0.0 1210.9519595802174 -2210.540133537086 0.0 0.0 482.86824551046146" Properties=species:S:1:pos:R:3:momenta:R:3:forces:R:3 energy=-1487703.2314943424 free_energy=-1487703.2314943424 stress="1.120171934909166e-07 3.367439712108947e-08 -2.58599974902875e-08 3.367439712108947e-08 1.213959003656701e-07 -1.4055857740048114e-08 -2.58599974902875e-08 -1.4055857740048114e-08 1.0701084544333807e-07" pbc="T T T"
C    -1799.43801293   -3452.89947661    1338.43815525       0.09949300       0.78234993      -0.59678482      -1.48835117      -3.73257238       0.13865164
C    -1799.74647036   -3451.67098220    1338.05245441      -0.80481316      -1.58457606       0.82589971       0.25714117       4.93543190      -0.45778252
C    -1800.68141872   -3453.72852430    1338.33515574      -0.31505851       0.37637963      -0.41891527       1.90858737      -2.52429479       1.88165592
N    -1798.24499583   -3453.41400804    1338.78180195       1.12453950      -0.64555967      -1.07944319      -0.43851838       1.89917051      -0.19868883
C    -1801.09486928   -3451.07963046    1337.94233584       0.31745007      -0.55631327       0.38740597       1.51291781      -2.58321599       0.86392439
N    -1798.57411243   -3450.76777991    1337.78198779       2.73637555       0.20355048       2.88428479      -0.70328961      -0.64374288      -1.81890634
C    -1802.14453708   -3451.91540386    1338.53659507      -0.67692143       1.13917775      -0.65626677       0.70575721       0.59097352      -0.08175528
N    -1801.21566142   -3449.89655307    1337.39701873       0.72469271       1.70528769       1.40545062      -1.21007105       1.20655311       0.35465869
C    -1801.93341222   -3453.28980133    1338.82575939      -0.70478755      -0.96452020      -0.26659210      -1.06936906      -2.73756420      -0.63626129
N    -1803.34825936   -3451.31251728    1338.87642283      -0.94610943       0.23785388      -1.45269829      -0.21469716      -0.35414030       1.30993624
N    -1802.94136207   -3454.22276441    1339.28826808      -3.13441641      -0.58148470       1.19241881       1.34734930       2.68964263       0.23524969
N    -1800.41418978   -3455.16546634    1338.31758380       0.03207867       0.27695300       1.06333962      -0.76162532      -1.61817613      -0.79185424
O    -1797.52991363   -3450.79523089    1338.38751856       1.15253501      -0.41134259       0.09813053      -0.17472601      -0.34729797       1.05325406
O    -1798.68229139   -3450.13277902    1336.73563181       0.25603021      -1.20855095      -1.27318995      -0.13699520       0.64164100       0.05657801
O    -1803.39606450   -3450.09495907    1338.70226077      -1.23172163       0.12730216       0.82268671      -1.35482118       0.18145472       0.07793449
O    -1804.22052910   -3451.99489906    1339.43879420      -0.62601999      -0.61880014      -1.59439001       0.26667525       1.52524046      -0.76466906
O    -1801.37492774   -3455.97548146    1338.50413667       2.02164140      -2.10178544      -0.97561439       2.87465483       1.30250833      -0.52303215
O    -1799.26855019   -3455.55482624    1337.95451890       0.18808694       1.84865852      -0.33999077      -2.45141054       0.24615015       0.93054510
H    -1798.23863608   -3454.40134226    1338.91691818       0.20005433       0.50470282      -0.46655809       0.55883178      -0.33873440      -0.12452463
H    -1797.44837100   -3452.77604128    1338.83705382      -0.25282218      -0.30177729      -0.68194455      -0.58064357      -0.68807922       0.04192153
H    -1802.06611097   -3449.37453193    1337.72213330      -0.26971847       0.04549182      -0.11664109       1.22876079      -0.64520965      -1.05906933
H    -1800.42131774   -3449.56673817    1336.83154605      -0.04013171      -0.13499975      -0.07097636      -0.70650411       0.02872148       0.73448782
H    -1802.73478988   -3455.21660474    1339.44252073       0.07679705       0.44158355      -0.02324718       0.49263094       1.18783930      -0.41447536
H    -1803.57644610   -3453.77556698    1339.94920135      -0.26248804      -0.24734464      -0.12402294       0.13771591      -0.22229920      -0.80777854
C    -3077.09303892   -6082.57416772    4632.04647906      -0.06611319       2.07961530      -1.70094336      -2.93974942      -1.52754516      -0.08386110
C    -3078.36771163   -6081.85085466    4632.06226489      -2.01464667      -0.22972686       0.42129472       2.83444685       1.47227436       0.15579955
C    -3077.31033851   -6083.99676582    4631.78476337       0.85635031       0.20306637      -0.20464832      -0.81336855       1.96305180       0.59043898
N    -3075.88793506   -6082.05163737    4632.27058759       0.51455028      -0.34246055       1.41335326       0.04792139      -1.95839992       0.03633236
C    -3079.57418470   -6082.45283661    4631.84026385      -2.40248412      -0.05944586      -0.10948268      -2.72480530      -0.12489486       0.17406609
N    -3078.36320526   -6080.37946858    4632.06006916       1.22830391      -0.14711732      -2.08156205       2.66885596      -0.33743191      -1.33519757
C    -3079.68054421   -6083.83079845    4631.70851245       0.17058536      -0.10432489      -0.92305901      -1.43428091      -2.53359333      -0.64039277
N    -3080.70712178   -6081.74028025    4631.81074160       0.40160889       0.50250457       0.16070971       0.87591923       4.16119712       1.40905593
C    -3078.57310171   -6084.70033193    4631.67151987      -0.53295188      -1.93041989       1.74905699       1.59082501       5.14458835      -0.41534369
N    -3080.97731260   -6084.54618166    4631.46641530       0.08353665       0.20137730      -0.69570784      -0.99237392       2.28915580       1.13878616
N    -3078.61625468   -6085.93770797    4631.37540441       1.00187463      -1.34140961      -0.02298654      -1.27677257      -1.27105741       0.37290520
N    -3076.16619203   -6084.73827682    4631.60453790      -0.32971664       1.34794559      -1.00943784       4.97126629      -2.66947066       0.12201005
O    -3079.26435716   -6079.74490416    4632.60626522       0.45510312      -0.04545723       1.04088846       1.58922924       0.04431388      -0.75565146
O    -3077.34832427   -6079.90357861    4631.42022653       0.28438914      -0.03871891       1.67182729      -3.10321121      -0.27685182       2.24612538
O    -3081.01412684   -6085.70352762    4631.79659676       0.22270907       1.11116960       1.00685521       0.10610544      -1.93242928       0.22358936
O    -3082.03321623   -6084.00819385    4631.12554389      -1.57422816       0.54274567      -0.40980923       1.23272894       0.87026501      -0.38352935
O    -3075.20717761   -6084.67706584    4632.37426611      -0.16576950      -0.28879480       0.84262655      -0.40400354       2.05249968       1.99525004
O    -3075.94748641   -6085.51949446    4630.69203389       2.01161741      -1.08429566       0.84830048      -2.67543339      -0.50718285      -1.91216056
H    -3075.78690278   -6081.11308511    4632.48610584      -0.21084072       0.28755509      -0.05924049      -0.17731504       1.98102067       0.10764565
H    -3075.18167278   -6082.66698090    4632.65876922      -0.07321786       0.22472534      -0.57120786      -0.23197140      -0.10183220      -0.42632096
H    -3081.57903476   -6082.07218967    4631.56675806       0.14897596       0.61301277      -0.03892171      -1.47271533      -1.48795083      -0.60797077
H    -3080.72046630   -6080.73573502    4632.19806825      -0.06848061       0.45105589       0.38064672       0.42863795      -2.49829354      -1.01003560
H    -3077.79279648   -6086.33384117    4631.10502152      -0.16302879       0.11692544       0.47772140       2.14619216      -1.74270040      -0.84059883
H    -3079.53744864   -6086.31940352    4631.39262052      -0.21417620       0.02377878      -0.49624320      -0.24612787      -1.00873250      -0.16094209
C     1299.15532445    4497.51514647   -5785.09237051      -1.19109208      -0.17945505       0.49981909       1.26368704      -0.24221867       2.02158088
C     1299.16001077    4497.72803842   -5786.44779772       0.59818379       1.71148028      -1.46697206       1.14047183       2.01378538      -2.55924174
C     1300.46997026    4497.19475763   -5784.45707214       0.67408282      -0.52879685      -1.95358161      -2.84026602       0.68419027       0.17113861
N     1298.12473353    4497.64190720   -5784.23722002      -1.04704557       0.78503912      -2.26290713       2.88571790      -0.17012835       1.36800820
C     1300.41071018    4498.06549561   -5787.24152936       0.27324156      -0.19059424      -0.61890637      -3.43801738      -0.31332363       0.44110074
N     1297.88723767    4498.13817289   -5787.01871218       0.75952748       1.79720478       1.28053597      -0.70937186      -2.77778822       1.17328120
C     1301.54838446    4497.77452721   -5786.59200324       0.02785787       0.39208097       0.43231677       4.66402494       0.42549617       2.14713844
N     1300.28405767    4498.53970080   -5788.48969218      -1.29462716       0.37131917      -1.36313426      -2.51072765      -0.30974820       0.53392358
C     1301.62652868    4497.33889483   -5785.17805743       2.17975460       0.67214291       0.61656441      -0.98850542      -1.43610102      -0.88825834
N     1302.90740974    4498.27906421   -5787.17278480       0.38349825       0.85104761       0.79012021      -1.24663344      -0.28123257       0.59315954
N     1302.76105487    4496.81872785   -5784.64363871       0.66675019       0.19150855      -0.26284946       2.21869425       2.26488783      -0.53000608
N     1300.38137972    4496.34924824   -5783.11081557      -0.51124569      -1.21537903      -0.01430029       0.38210132      -0.84910785      -3.52330683
O     1297.75610970    4498.84655433   -5787.96832147      -0.86613668      -1.66053690       1.74069819       0.27920295       1.79770120      -1.48092022
O     1296.91506548    4497.56439049   -5786.53076923      -0.49555300      -1.30786161       2.64522058      -0.24354554       0.20168560       0.50776935
O     1302.84772205    4498.85658305   -5788.24773453      -1.51355932      -1.28978336      -0.88429908       0.68325145      -0.48417119       0.70876797
O     1303.95715738    4498.13275735   -5786.52198765       1.30273989      -0.27785670       0.31443146      -1.21498774       0.44298745      -1.35009436
O     1299.55616690    4496.57605472   -5782.23651447       0.15988533      -1.24053169      -1.02196165       1.24984427       0.11496579      -0.22382698
O     1301.04133308    4495.32492195   -5783.26377497      -0.50052036       0.75789067       0.56054824      -0.73032325       0.87343073       1.79520693
H     1298.48998586    4497.63675159   -5783.28033845       0.28268474      -0.28146496       0.02866759      -1.01311479      -0.09858084      -0.38161757
H     1297.17200520    4497.67407497   -5784.39711823       0.44473493      -0.10996219       0.10138168      -1.57349119       0.05902919      -1.04034982
H     1300.98112371    4498.98781915   -5788.96028960      -0.81384951      -0.04955284       0.35684857       2.90466258       0.63408475      -0.77372912
H     1299.41009557    4498.97975752   -5788.74209081       0.61434941       0.36345807      -0.09004665      -0.33957774      -0.65604114       0.44622934
H     1303.56988947    4497.34645449   -5785.04618374      -0.26781511      -0.53481223      -0.26748619      -0.65512154      -1.18010658       0.18865602
H     1302.78709892    4497.01499276   -5783.66288904       0.22376898       0.40202377       0.12357667      -0.16797497      -0.71369610       0.65539027
C    -2003.42065926   -5413.66283989    4216.45762655       0.29895336      -1.49739337      -0.30379024       0.10594125      -0.66736209       3.21291300
C    -2004.12703725   -5414.93118888    4216.20119327       1.76149458       0.84915349       0.98549149       1.06502245       0.87525779      -0.04580640
C    -2002.08503151   -5413.78089724    4216.95653703       0.98723005       1.75333693      -0.71461931       0.15879620       2.97676498      -1.54045550
N    -2004.14313984   -5412.55692260    4216.66462919       0.04631544      -0.88245463      -0.56245284      -0.48763494       0.89475685      -1.95707068
C    -2003.49654478   -5416.19827309    4216.38285432       0.30104732      -1.11581081      -0.06027353       0.78735569      -0.06979212      -0.61046841
N    -2005.47186404   -5414.91775727    4215.91179604       0.90120153       0.31894391       1.29563255      -4.56401214       0.56573935       0.52527277
C    -2002.23447648   -5416.22072132    4217.00894331      -0.34136759      -0.78363046       0.14433471       0.47480862       2.48477573      -1.45548621
N    -2004.02694438   -5417.29674998    4215.88288579       0.55215483      -0.95302852       1.46439979      -1.95577227      -3.26813308      -0.62093985
C    -2001.44637046   -5414.96588415    4217.08007362       1.03998676      -0.10392600      -1.13444341      -0.80083821      -4.00501886       0.77284167
N    -2001.37101795   -5417.34997819    4216.90201561      -0.98698475      -2.25149499       1.15916644      -0.71475453      -3.08355857      -0.92073851
N    -2000.16997091   -5415.11933103    4217.32180450      -1.88694820       0.72362229      -0.00314052       1.47892779       1.60275034       0.62961387
N    -2001.23002779   -5412.51713784    4217.06973999       0.57396900       1.88681235       1.34713025       0.09955297      -3.84745860       4.39302715
O    -2006.26818010   -5415.88985667    4216.09745774      -1.09494997       0.12709790      -0.12794069       2.35135204       0.96866537      -0.63675074
O    -2006.01139406   -5413.82041335    4215.58305824       0.61094415       1.62464036       0.53330022       0.92742540      -1.05379660      -0.40382315
O    -2001.34197878   -5418.10588863    4215.91926239      -1.56846498      -0.73109138      -0.39379051      -0.86124004       1.18410257      -0.22504293
O    -2000.68158019   -5417.62398496    4217.84755401      -0.47826671      -0.10404761      -0.40246538       1.01595736       0.19747124       1.72153663
O    -2000.27960719   -5412.53945212    4217.90998198      -0.59747783      -0.27260026      -1.72896874      -0.35789392      -0.67023063      -1.39214539
O    -2001.64238534   -5411.51731747    4216.66108891       0.09627613       1.05938754      -1.35840521      -1.25216594       3.59384029      -2.49944062
H    -2003.80541147   -5411.62914068    4217.11893403      -0.01865343      -0.18971723       0.26514700      -0.62362499      -2.73631358      -1.79610886
H    -2004.96822346   -5412.75294528    4215.96852022       0.41933164       0.14450114       0.05385578       0.63846961       1.68762616       2.19434323
H    -2005.05346052   -5417.41152728    4215.54955202      -0.21225531      -0.18655921      -0.38923066       2.64700265       0.99043819       1.17116045
H    -2003.52340816   -5418.20455980    4216.01284653      -0.03951089       0.12723096      -0.16108766      -0.63290719       1.61507136      -0.28485142
H    -1999.76558773   -5414.26884335    4217.78141844      -0.26859370       0.27506709      -0.03116461       0.17913559      -1.23825395      -0.83032717
H    -1999.79076029   -5416.06118628    4217.32017288      -0.10962728       0.29108862       0.02078659       0.32109655       1.00265788       0.59874706
C     2348.83094356    5699.32113319   -3445.20881233       1.26622085      -0.79153412      -1.46570107       1.92092696      -1.07978636       6.02370071
C     2349.36958975    5699.24998436   -3443.84407979      -0.80340971       0.18876032      -0.49820198      -0.89247283       4.07479712       1.81669011
C     2348.05418036    5700.38490107   -3445.47570430       1.29453472       1.20194801      -0.44859800      -2.68781082       3.65994055      -1.32364478
N     2349.09131627    5698.31721640   -3445.95154043      -0.51628269       1.69654149      -0.25313722       0.86867821      -3.65289045      -4.31077909
C     2349.10013983    5700.32206000   -3442.83725455      -0.55288979      -0.55770702      -0.96019706       0.07793843      -0.34731963      -2.19614944
N     2350.02770163    5698.11814553   -3443.27730558      -1.15086693       0.54282436      -1.11216840      -0.80535342      -2.63370666      -0.33703408
C     2348.22701080    5701.43971271   -3443.25789309       1.07198792      -0.44082565       1.14688334       1.74832663      -4.08735330      -1.50362873
N     2349.76268716    5700.39027380   -3441.66225350       0.40381620      -1.38714742      -1.26539707       0.30537590      -1.33137690       1.86405602
C     2347.90238102    5701.54754130   -3444.62592270      -1.28374281       0.09996800       1.09361654      -0.93444117       1.53935278       0.78487321
N     2348.23047588    5702.56818364   -3442.47719035       1.82564170      -1.19277661       1.11016538       0.70075989      -0.22546218       2.43025883
N     2347.33848238    5702.73459534   -3445.04166382      -0.45634389      -0.86506040       0.34138587      -0.15113886      -2.57425805      -2.73775012
N     2347.18880327    5700.23795782   -3446.63743547      -1.83915313      -0.91072592      -1.92058876       0.11814878      -0.91665075      -0.46371364
O     2351.11454983    5698.23149854   -3442.72501905      -2.13759467       0.52504882      -2.39182799      -0.38541031       0.12921396      -0.14700772
O     2349.40260344    5697.02947318   -3443.33848487      -1.91026973       0.45657599      -0.65823605       1.27053797       1.64691281      -0.12324529
O     2348.52046572    5703.59505292   -3443.00684342       1.49322761       1.67028719      -0.72558540       0.19283395       2.91264212      -0.69879719
O     2348.09390016    5702.46560464   -3441.26390122       0.77540117       0.65677269       2.57519873      -0.46533587      -0.22304303       0.27544110
O     2346.71685963    5701.11837426   -3447.32409023       1.97692676       0.47482850       1.81708359       0.28529666       1.60350004       0.72403089
O     2346.94306221    5699.07128894   -3446.92043642       0.31489298      -0.94140739       2.05230682      -0.34269466      -0.59366753      -0.28473168
H     2348.51941258    5698.26726517   -3446.84405243       0.34492187       0.26422504       0.34581423       1.36312090      -0.39009364       1.71322865
H     2349.83867938    5697.60654294   -3445.73617640      -0.33849747       0.07784032       0.11726590      -1.67321838       1.40261227      -0.21126848
H     2349.29987517    5700.73540677   -3440.78951722      -0.06510997      -0.51021833      -0.32500696       0.45578472      -0.00011514      -1.79496201
H     2350.51050399    5699.68517760   -3441.45466015       0.20601281      -0.26792846       0.10161661      -1.28343529       1.01751997      -0.65415827
H     2347.06699467    5702.63548900   -3446.04523124       0.16341959       0.17078654       0.51065058       0.12100701       0.93145038       1.35414148
H     2347.39516293    5703.61938470   -3444.54674471      -0.05559598      -0.13029017      -0.10138861       0.19257559      -0.86221840      -0.19955048
C     2750.53642229    4681.27544277   -1503.53066380      -1.01349661       0.23388645       1.82475433       3.93134688       1.97694393       0.97567980
C     2749.85404770    4682.51514130   -1503.36976746       0.11475256       0.57032105       0.35855473       1.90821927      -1.41532355       2.84647669
C     2751.98221069    4681.25716746   -1502.99116772      -2.06762274      -1.29404732      -0.50895412      -2.65204670       0.95695858      -1.04005375
N     2750.23026688    4680.24494768   -1504.25940988       1.24541902      -0.38609856      -0.36401795      -3.82518322      -0.37251841      -3.04251263
C     2750.42437241    4683.47325641   -1502.42365489       0.60260498       0.97228176       0.02153110      -0.89619652       2.47929488       0.24725529
N     2748.58081658    4682.72592083   -1503.95053745      -2.22589663       1.27318664       0.64418602      -1.06224910       3.13233276      -0.68340175
C     2751.68828703    4683.41711499   -1501.73752878      -0.85065342       1.11575109       0.25221731       1.56107667      -3.88793953      -1.34993259
N     2749.72426608    4684.63890747   -1502.30263727       0.62530723      -0.67048939       0.63165808       1.05155774      -1.18240871       0.54463216
C     2752.57933077    4682.23172836   -1502.15059656      -1.04813438       0.80120881      -1.54636877      -2.01049814       0.62000858      -1.70931317
N     2752.28856281    4684.46254330   -1501.01542874       2.33157986      -0.83843412      -3.03441197       1.96572270       2.30530313       0.48535602
N     2753.88074454    4682.12080717   -1501.93350166      -0.25765481      -0.58676115      -0.61017151       1.62063414       0.30775958       0.45558038
N     2752.89705068    4680.56843501   -1503.91341824      -0.42942578      -0.31276263       1.41741917      -1.23460168      -3.93627114       2.74295324
O     2748.54685075    4682.49220781   -1505.15423100       1.14850126      -1.00212072      -0.29371156      -0.80192387      -1.05746774       0.34522238
O     2747.67605254    4683.39940076   -1503.36525639       0.48391895       0.33224243       1.51648022       1.56023274      -2.18093984      -0.97048592
O     2753.46935034    4684.37750868   -1500.54415681       0.90161704      -0.11842842      -0.72651047      -2.22604114      -1.01497318      -0.86687789
O     2751.72936049    4685.56510302   -1500.92253562      -0.17959637      -1.11279843      -0.18310868      -0.40737761      -1.12875360       0.07876594
O     2752.78672343    4679.33354432   -1504.08092876       1.07626040      -0.98965786      -0.11180508      -1.15429266       0.74785382      -0.06169035
O     2753.83261681    4681.12452642   -1504.32210198      -1.50002952       2.01079922       1.03330017       2.91495994       2.65213820      -2.05246847
H     2750.83334834    4679.48571028   -1504.45103529       0.10152762      -0.14210532      -0.11788313       1.04255693      -0.50809033       0.48804313
H     2749.46978783    4680.29057904   -1505.00746939       0.08166906      -0.27528166      -0.42146165       1.17816948       0.43984759       1.90898993
H     2749.98138810    4685.26108044   -1501.55190060       0.02357623      -0.04000422       0.15234782       0.32258874       0.01491275      -0.23235133
H     2748.76876926    4684.52920943   -1502.51412487       0.39369105       0.10240379      -0.29394601      -1.15225814       0.30114894      -0.23152443
H     2754.62205255    4681.74025261   -1502.52943957       0.15892498      -0.29410409      -0.33504692      -1.62942722      -0.43472236      -0.02675492
H     2754.29292742    4682.83955275   -1501.40800989       0.31564954      -0.02638586       0.01307741      -0.00496922       1.18490566       1.14841223
C     1881.69066822    5288.27715104   -5067.28383578      -1.86432628      -0.78480611       0.37545171      -1.46794269      -2.46277381      -1.03264614
C     1882.93949241    5288.36553715   -5067.89177588       0.92967075      -1.35342780       0.37936232       0.84746582      -0.27158833       0.72114986
C     1881.15464281    5286.90739615   -5067.47949446       1.19957536       0.55512161      -0.99125180      -2.40401753       2.77652864       2.37417816
N     1880.91423333    5289.25211061   -5066.74097030       0.31145918      -0.27961857      -1.04117021       0.37375462      -1.58994413       1.12845161
C     1883.65584259    5287.18468742   -5068.28181696      -1.03464120       0.79357703       1.67780217       2.93544302      -0.17968568      -3.94715659
N     1883.60325959    5289.65588279   -5067.78923527      -0.74192999       1.60334432       1.22181290       0.35835427       2.32899962       2.85403176
C     1883.11295870    5285.85390436   -5068.43819647      -0.40512532       0.82683247      -0.88652000      -1.61263671       2.62931686       1.31030081
N     1884.89884808    5287.44348770   -5068.91139674       0.69881040      -0.27862222      -1.60233240      -3.24389099       3.04322298       4.22347571
C     1881.70554468    5285.78599514   -5068.03565915       0.38727000       0.36260655      -0.17420859       1.96726181      -0.63741333      -0.76714738
N     1883.73324065    5284.77288057   -5069.15533267       1.52420113      -0.24831110       0.66922450       2.54775026       2.75945048      -2.47351313
N     1881.04042306    5284.67105625   -5068.27197724      -0.66876787      -1.66653893       0.47574620      -0.18030812      -3.31128033      -0.40385517
N     1879.75034872    5286.76807169   -5066.89466425       0.07692172       1.95966827      -0.70331958       1.83390152       0.85892850       0.83481515
O     1884.75624849    5289.83804863   -5067.33297117      -0.63521338       1.76714520       0.38689231      -0.65165455      -1.80845564      -1.63834414
O     1882.87000857    5290.65222866   -5067.82865941       1.97175622       0.49278907      -1.39795632      -0.08176684      -0.96524400      -1.05248059
O     1884.54860167    5285.01027354   -5070.08192217      -1.10594534      -2.43248460       0.25585377      -0.44831253       1.46137027       1.01869066
O     1883.51516940    5283.64028004   -5068.93672337      -0.14351920      -1.13878618       1.55093342      -2.10644601      -3.31852606       1.92101892
O     1879.59310144    5287.30226622   -5065.75094028       0.54671588      -0.96671134       0.07960529      -0.69856363      -1.77941899      -2.34613120
O     1878.92145317    5286.17011500   -5067.54574984      -0.30885903      -0.27543385       0.74500392      -0.13603914       0.37340721       1.03065287
H     1880.29783619    5288.85966559   -5065.95018307      -0.19794408      -0.14631739      -0.11165297       1.17973701       1.21902468      -1.77457852
H     1881.40623581    5290.12924987   -5066.69490589      -0.10333390       0.21559006      -0.40757972      -0.40081221       0.20950020       0.24609249
H     1885.32502754    5288.33553570   -5068.52396784      -0.02264579      -0.23521160       0.07963312       0.03349303      -2.09660077      -1.26977434
H     1885.22121178    5286.69890663   -5069.42654704       0.05123807       0.28116942      -0.45099887       1.62852323      -1.43128990      -1.28828103
H     1881.61743549    5283.81727342   -5068.52684113      -0.27005121       0.39441286      -0.27643555      -1.15122457       1.68330188       0.53432480
H     1880.06061823    5284.51169501   -5068.02636461       0.01701801       0.33503348      -0.31009141       0.87793096       0.50916964      -0.20327457
C      490.50761800    2041.67394554   -2821.04081872      -1.09588216       0.99614001      -0.19781999       0.83567665       0.05415590       3.21778812
C      489.52316517    2042.66543429   -2820.87122020       0.13225324       1.76969843      -0.00313695      -2.91671727      -0.00428909       0.31032853
C      490.46388026    2040.44505095   -2820.23363140      -1.14232019      -1.59777487      -0.50283758       0.47436566       0.46224798      -1.01303110
N      491.66298977    2041.95130525   -2821.61930981      -0.60532993       0.26469162       1.27437972      -1.59113509      -2.21375903       0.94076213
C      488.27217896    2042.40780271   -2820.13474389       0.22472663       0.31838310       0.43555746       2.57728801      -3.56565632       0.32409596
N      489.61904440    2043.86247321   -2821.65472557      -0.42061367       0.08251305      -0.16303288       3.48020108      -1.27660993      -0.51864393
C      488.32252709    2041.09982976   -2819.27813693       0.19649472       1.12189006      -0.48169369      -0.75344124       3.21096428      -1.80999643
N      487.19722216    2043.12739918   -2820.31081033      -0.96765057      -1.17283359      -0.37501897      -0.18052880       4.19387463      -0.77858310
C      489.29550576    2040.08029755   -2819.50812625       0.81386354       0.01750022      -1.34181421       0.49436931       0.20832409       1.15497293
N      487.27102380    2041.06671323   -2818.29916356       2.59989183       0.02348917       0.35556945       0.46038689      -1.09096726      -1.69861539
N      489.16013888    2038.86587500   -2818.93762856      -0.50659154      -1.18195128      -0.53698617       0.95447402       0.73091946      -0.57883357
N      491.70907156    2039.61738610   -2820.14189859      -1.97501147       0.24231954       2.19570271      -2.15432970      -1.85978017       2.90251082
O      490.77015336    2044.12288127   -2822.10403876       0.49395539       1.75389866       0.28307495      -1.96419612       0.86618951       0.45901437
O      488.67770102    2044.55766950   -2821.90496050       2.21725094      -2.23384424      -1.48074746      -1.38461921       1.20714578      -0.19889926
O      487.03557124    2040.06014533   -2817.65937818      -0.32080070      -1.37181049       0.72228529       0.26951292      -0.73828218       0.46343752
O      486.57549097    2042.05696947   -2818.22443362       0.80771479      -0.74113205      -0.59721652      -0.83154848       0.79114593       1.33569003
O      491.91286695    2038.86093992   -2819.14051251      -0.46137003      -0.48203809       0.84026278      -1.51969171       1.54831901      -0.72498841
O      492.49263370    2039.57697121   -2821.02296276       0.07956741       0.99918767      -1.58078374       1.51454704       0.69652858      -2.58989565
H      491.95377063    2041.07945900   -2821.89677748      -0.28592925       0.60186943      -0.27638468       2.64230521      -1.53664271      -1.12956759
H      491.89261106    2042.82756372   -2821.92462611       0.12631248      -0.16049657      -0.06472178       0.42136158       2.11657106      -1.27606556
H      487.35863671    2044.04028472   -2820.92954824       0.12219869      -0.19110936       0.52252958      -0.34590762      -2.87826803       1.64377621