1296
Lattice="1103.7866712057814 761.5139126483359 -130.24183688680688 0.0 545.3891495651445 -471.0614485621239 0.0 0.0 155.5187343296936" Properties=species:S:1:pos:R:3:momenta:R:3:forces:R:3 energy=-1487486.520003264 free_energy=-1487486.520003264 stress="1.3680614229505072e-06 -1.2578128048443614e-08 -4.0642387317124664e-07 -1.2578128048443614e-08 6.20625841083106e-08 -2.1452039737207955e-07 -4.0642387317124664e-07 -2.1452039737207955e-07 1.5043841924395055e-06" pbc="T T T"
C    -2064.96060079   -4510.35505120    -125.74136782      -0.79682557      -2.66359673       0.46983716       0.40687564       0.50708602      -1.90510628
C    -2065.43019633   -4510.37897770    -127.10116073      -1.53226153       0.11846116      -0.01754982      -0.51639870      -0.43165323      -1.69883270
C    -2063.59607350   -4509.95383250    -125.73016281       1.32554522       1.37690158       1.83105067       1.57752124       0.12237363       2.08123225
N    -2065.74023055   -4510.63036104    -124.62519948       0.35011687       1.11834963      -2.61451982       1.30993286      -1.74943463       0.17009075
C    -2064.64653130   -4510.00342454    -128.24319252      -0.92773685      -0.20750505       0.15089626      -1.76544602      -3.37225573      -0.18967495
N    -2066.85478334   -4510.88601513    -127.42855386      -1.17737650       0.79294034      -1.18651051       2.37892744       0.99032393      -0.11452499
C    -2063.22349296   -4509.94024361    -128.05770437      -0.65342728      -1.48154940      -1.36494586      -0.67052062       1.23026446      -3.62580385
N    -2065.27025077   -4510.16364992    -129.50749996      -1.76499136      -0.27032130      -1.19841778       3.79588057       3.44016252       0.02109411
C    -2062.61475612   -4509.90129317    -126.83724510      -1.46000692      -0.46989313      -1.68766281      -5.58181406      -0.05879114       2.47663738
N    -2062.35875125   -4509.53542832    -129.25847122      -0.67359989      -1.79089152       1.01234821       0.05626975       0.61023516       1.15318247
N    -2061.36971624   -4509.78643757    -126.61862975      -0.04955507      -1.28963847      -2.34793673       3.10093110      -0.02731081       6.17882686
N    -2062.96786277   -4509.66924534    -124.26299111      -0.12246117       0.53529073       0.35025721      -2.97963228      -3.07542560      -1.49138288
O    -2067.59240180   -4510.60653460    -126.50427335      -1.39126300      -1.08462652       0.16946053      -1.48329306      -1.03070699      -1.24334473
O    -2067.12198375   -4511.45353515    -128.52401824      -1.44516917      -2.71331378       1.59121941      -0.54493025       0.72245213       3.32574039
O    -2062.78587448   -4508.83844832    -130.12150446       3.06273846       0.92201993      -1.02343124      -3.30083114       1.04975809      -1.55796235
O    -2061.16807338   -4509.72462470    -129.28875078       2.07518129       0.52273169       0.85603864       1.88202161      -1.95024176       1.70552683
O    -2063.34788216   -4510.49155820    -123.42752270      -0.71625356      -0.50847994       1.20964069       0.71524421       0.63368828      -0.19724958
O    -2062.27202420   -4508.74156453    -124.03267373       0.89908855      -1.31133780       2.39908287       1.12491301       1.30197270      -0.15628562
H    -2065.16226338   -4511.28227481    -124.06767793      -0.20069105       0.08936081      -0.13017145      -0.46527505       1.15077576       0.27512503
H    -2066.63783800   -4511.10000714    -124.76880481      -0.03190792       0.21612860      -0.14618093       0.48528002       0.79135295      -0.55013162
H    -2066.06326415   -4510.75632627    -129.70890152      -0.12181614      -0.53655706      -0.08281511       0.21580802       0.57496367       0.42821239
H    -2064.87258093   -4509.41458576    -130.13282086       0.02931577      -0.15425420       0.09943969      -0.94525407      -1.85038843       0.38314692
H    -2060.77970586   -4509.62769148    -127.34831731      -0.26166107       0.27972451      -0.10218445       2.06155934       0.31689568      -2.11470510
H    -2061.01871408   -4509.75650419    -125.57557317       0.30071578       0.66680258       0.05641650      -0.85776954       0.10390334      -3.35381073
C     2504.67906228    8506.01658254   -3193.20472090      -0.46346649       1.32496676       0.19405089      -3.05648153      -1.10253628      -2.07714858
C      647.66681363   -9153.20344245    4583.01674672      -0.56095535       0.96914882       1.94863604      -0.64370743      -1.66794480       1.23300814
C     2503.58502757    8505.54183834   -3193.58932796       2.14998505       1.34666987      -1.92337601       1.14141223      -0.01800231       0.88279109
N     2505.73716483    8506.53159709   -3193.00122710       0.40347798       0.19550764      -0.19109179       1.90050703      -1.67494751       0.49436136
C     2182.37387747   -3772.22045348    5418.40487383       0.53043449      -0.07772929       0.41002703       0.58171030      -0.11559439       3.09328382
N      648.00352121   -9152.33098142    4582.37179039       2.15109868      -2.10231457       1.06496401       0.64370743       1.66794480      -1.23300814
C     2182.81776955   -3772.61928835    5417.18086350      -1.46428922      -0.26565190       2.37199544      -0.71120612       0.81801395      -0.82385888
N     2182.14312890   -3771.83213418    5419.47094939       2.28876072      -1.50752846      -1.02106751      -0.40233411      -0.22680306      -0.23219957
C    -5437.70471994   -2895.86889440   -2703.76929792       1.81405579      -2.73704716      -0.95779358       4.98607653       0.38119618      -6.88280191
N     2182.84707857   -3771.47469680    5416.48754709       2.66392433      -2.03131333       0.43387851      -0.65421945      -1.07864523      -6.00989266
N    -5436.96453131   -2895.81230540   -2704.79105755      -1.47033622       2.01561149      -2.03265229      -4.98607653      -0.38119618       6.88280191
N    -8011.69896558   -5054.36446516   14060.63411293      -1.93831192      -1.77179018       6.49287237       0.22074039       1.67344587       1.54639540
O     9139.70024274   -7303.86140318  -16090.05102832       0.00396380      -1.35407813      -2.86173263       3.84636817       1.37377426      -7.32542909
O   -14019.78185855    8115.79125203   12323.38084970      -2.11048774       0.94508090      -2.16519806       0.19775500       0.84232287      -3.15500583
O     2182.68796350   -3771.62152577    5415.16771813       0.63554745       2.08699091       2.16778697       1.06157797       0.51082322       4.41673281
O    -3895.17645569    7125.00598245   12190.15640745      -0.82415616       0.99045015       2.22184889      -1.11735591      -3.39482260       0.13964990
O    -8727.33137662     -12.52970062    8010.97387121      -1.19258365       3.39502812      -4.21053046       0.01011708      -0.72746694       0.53780992
O    -8011.58684064   -5053.51443941   14061.41960348       0.80594964      -2.73719077       0.52087221      -0.22074039      -1.67344587      -1.54639540
H     2503.27516747    8504.97690614   -3194.42218856      -0.39421944      -0.27848626      -0.27797541      -0.52599629      -0.07303009      -0.18968346
H   -14019.71885791    8116.05959860   12322.37573034      -0.17576708      -0.49593917      -0.08488610      -0.19775500      -0.84232287       3.15500583
H     9139.34187747   -7303.98939743  -16089.36851971       0.42435038       0.01531609       0.47453111      -3.84636817      -1.37377426       7.32542909
H    -3894.89424760    7125.86340522   12190.12113639       0.59111443      -0.17797408      -0.20793588       1.11735591       3.39482260      -0.13964990
H     2505.86096571    8507.41604006   -3192.67385850       0.49426109       0.30537942       0.13624378       0.54055856       2.86851619       0.88967958
H     2182.75726060   -3773.62253342    5416.81020984      -0.04303984      -0.44957316       0.09949312       0.12447142       0.09220550      -0.44406552
C      458.91553733    1035.13422717   -2471.95389645      -0.65653171       1.58626950       0.62884831       4.87054047       0.41454610      -1.60846755
C      459.39929453    1035.80450136   -2470.74811435       1.48978465      -0.59045532       0.16098474       4.97137101      -3.54632829      -6.91807228
C      457.65450414    1034.69013590   -2471.91798133      -1.00868283       0.61932984      -2.04272735      -3.69719524      -0.05781205       3.27837527
N      459.79212063    1034.97286814   -2473.08887098      -1.93897068       0.42643815       0.86508577       0.02761317      -0.73968012       1.57876152
C      458.71329167    1036.42827716   -2469.92466784      -1.35819388       1.29331323      -0.31908668      -7.52061001       3.41142380       4.48761742
N      460.85918999    1035.88459595   -2470.56047743       0.72169862       0.11437398       1.32801393       2.56816803      -0.62591846      -1.65330934
C      457.22958895    1036.10881185   -2469.92105066      -1.13701872      -1.04424765      -0.02875976       0.14543960      -0.46111209      -0.22004054
N      459.21386144    1037.29991394   -2469.04368738       1.44483652       0.53851745       1.09987063       1.05288495       3.11936669       2.39891119
C      456.73527975    1035.15328984   -2470.79879819      -0.28868506       0.22946105      -0.22948948      -1.93701353      -0.51879660      -1.83355930
N      456.18245257    1037.13070797   -2469.54307261      -0.06639333      -0.82273196      -2.01008286       0.32389719       2.16727628      -0.76983456
N      455.32689520    1034.89689177   -2470.95197842       0.69285239      -0.22550917      -2.65181940       0.98610633      -0.30241406       1.06630603
N      457.13450495    1033.79629539   -2472.86891080       0.27160663      -0.35049984      -0.50832810      -2.11271296      -0.88171355      -0.17638922
O      461.31686077    1035.50487071   -2469.52278737       0.43103457      -0.21912988      -0.69213055      -0.58578228      -0.28669017       1.61700307
O      461.64313026    1036.17692274   -2471.47912463       0.55631453       1.57311967      -0.48721249      -1.64571711       0.54650372      -0.05675094
O      455.11016808    1036.97682337   -2468.94302208       1.29535758      -0.39725269      -0.52017098       1.98653578      -1.03118757      -0.55981382
O      456.47656502    1038.21349398   -2470.07210369       0.85390672       1.17465376      -0.35993769      -0.32759626      -0.85907893       0.97763519
O      456.06158102    1033.16994011   -2472.74019239      -1.89541832      -2.71801482       0.03115687       0.98139072       0.66943493       0.63778447
O      457.77783616    1033.67438603   -2473.86125242      -1.65418538      -0.17616107      -0.52699964       1.11175009      -0.70086035      -2.27353431
H      459.64870980    1034.09011721   -2473.56201731      -0.09936056      -0.12991480       0.71825481      -0.57655398       0.51820520      -0.16108453
H      460.81556326    1035.16757435   -2473.09956911      -0.36387110       0.10748304       0.01645163      -1.57438837       0.45744396       1.17623499
H      458.69909704    1037.39232975   -2468.19295092       0.15185844      -0.14738903      -0.53366146      -0.41862034      -0.03360524       0.18158471
H      459.81929014    1038.18269521   -2469.12112544      -0.17356510      -0.21998963      -0.21382461      -1.07247011      -2.52240307      -0.90441717
H      455.03128395    1034.03471514   -2471.48789777      -0.01028429      -0.55862024       0.51059158       0.98785164       1.67123788       0.93308443
H      454.68240951    1035.19496462   -2470.17570879       0.53058384       0.09142484      -0.62674818       1.45511122      -0.40783800      -1.19802475
C    -1621.08245947   -2515.88556370     685.15828506       1.04648449      -0.53871316      -1.53067823      -1.13283676      -0.43724432       1.29460775
C    -1620.70767615   -2514.53773832     684.97162346      -0.07887332       1.23970322       0.53390986       0.16171848      -2.12184146       1.23653473
C    -1621.19752987   -2516.33273105     686.51641371       0.31023019       0.07660120       2.75017797       0.26307831      -2.22416728      -2.68456581
N    -1621.40662738   -2516.43533254     683.99238559       1.78872524       1.20415554       1.45220157      -3.36837819      -3.68608753       3.48345034
C    -1620.45218363   -2513.80981362     686.09774248      -1.37375878      -0.52852055      -2.03597232       1.74778682       6.29926535       1.98271525
N    -1620.44495351   -2514.20456523     683.72388766       0.83214329       1.71180145      -1.82293730       2.38539917       4.44553368      -2.05986063
C    -1620.92832812   -2514.07580050     687.43785972       1.42106940       0.62796759       0.48324825       0.08144346      -0.70586951      -0.29672779
N    -1619.83024093   -2512.56864297     685.79217449      -0.85056960      -0.81007569      -1.68643662      -0.64665425      -0.91506562       4.14204327
C    -1621.40120838   -2515.42407216     687.59292357       0.32848389      -0.90892286      -1.73472085       1.59498892       2.13481644      -3.75875143
N    -1621.04310262   -2513.13855987     688.66041921       1.13621553      -1.70187495       0.69970140       0.48476331      -3.72634316      -2.25706990
N    -1622.22023798   -2515.79612387     688.46630835      -0.37242286       2.36967987       0.16152423      -2.24984773      -3.57200223       8.47527741
N    -1621.34330687   -2517.80563033     686.76055358      -0.93702957      -0.56454894       1.14836469       1.68095546       1.87294027      -4.95967625
O    -1833.89357622   -2613.14778580     497.67779475      -3.71330280      -1.84228334      -2.86111101       4.11653636       0.89449507      -1.33650136
O    -1619.87380420   -2513.05613837     683.55219793      -0.54245975      -0.73852373      -0.17985098      -1.74799310      -3.81573069      -1.42431676
O    -1621.20558247   -2513.70607721     689.73520738       2.04762959      -0.88203787       0.76640960      -0.01381137       0.65182133       0.17565342
O    -1620.94006397   -2511.97503941     688.49122519       1.56456368       0.57228481      -2.11068401       0.23397492       2.16560065      -0.17558813
O    -1620.95250495   -2518.56442471     685.78168218      -1.20071625       0.46943126       1.30793937      -1.47814135       1.64750133       3.54580905
O    -1621.76810994   -2518.12761415     687.82143270      -1.37385376      -0.08111605       2.65378148      -0.22001549      -2.83002565       1.03244678
H    -1621.69440394   -2517.37872002     683.79781379      -0.42883884       0.14085707      -0.05594646      -0.18930072      -0.45186141       1.44982160
H    -1620.85272771   -2516.21987807     683.30895729      -0.28976364      -0.27564252      -0.42535974       3.63795504       2.61079657      -5.06908367
H    -1619.06763380   -2512.51588000     685.13596693       0.55819280      -0.21293756       0.71267667      -0.69378604      -0.26964761      -0.19923655
H    -1619.68936090   -2512.02311658     686.64404683      -0.05476326      -0.15060139      -0.03433194      -0.00914708      -0.22304277      -0.41685012
H    -1622.09135804   -2515.31180866     689.42037304       0.29890733      -0.10071665      -0.09877493      -0.68958279      -0.46271872      -2.19340790
H    -1622.31756269   -2516.90324215     688.66643186       0.12468076       0.06146283       0.19786478       0.16743097       3.61337233      -1.32322465
C     2324.80822443    1589.58279335    -454.85926501      -1.85078702      -0.76366368       0.99348942       2.41531443      -0.92531887       4.44261475
C     2324.24796676    1590.84851439    -455.26008416       1.29443873      -0.25583053       1.10362262      -1.70278081       1.79577121      -4.21890044
C     2325.84563902    1589.20319710    -455.84754614      -0.03656369       1.84769540       3.45119347      -5.96807429       3.80780284      -1.05837794
N     2324.95593950    1589.50901376    -453.57977627       1.23186216       1.39632296      -1.17967135       0.67377248      -1.99545004      -0.71370230
C     2322.70578710    1590.92667405    -455.74321343       0.96308895       0.14579547       3.26266631       0.79581843       1.59652367       3.62082496
N     3363.57468038     412.95101164   -1650.38700303       3.64891276      -1.42749251      -1.05707886      -3.02060080       3.51301031       5.46215474
C     2322.21801477    1589.61535768    -455.92893265       0.55912806       1.33708562       1.22175004      -2.64533461      -5.05113583      -1.12910763
N     2321.88738118    1591.86642907    -455.42362514       1.16460437      -0.03732652       0.19672659       0.84674028      -0.03817788      -2.60437942
C     2325.64472050    1589.53848620    -457.16784880      -2.99556809       0.97216657      -0.51346624      -3.21289859       1.76535616      -9.21654594
N     2321.76426314    1588.54040167    -456.14290204      -1.76780880       1.63307564      -0.91425523       1.70498786       3.77742805       0.73949693
N     2325.31528577    1589.57466471    -458.32618506      -0.69630729      -1.75457898      -1.74970255       1.70718263       0.07236690       5.58745360
N     2326.85678996    1588.59497975    -455.88508853      -0.06807428       1.15012590      -0.17020969       6.02492858      -5.96725108       3.61775834
O     3363.92920464     412.10925949   -1651.06888369      -0.23027114      -1.87687996       0.16119355       2.04077622      -4.21596403      -3.86536636
O     3362.92005623     412.70912728   -1649.29854701       0.55390771      -0.94756942      -0.40480669       0.97982458       0.70295372      -1.59678838
O     5153.59340983     -56.78342790   -3067.72775715       2.05323219      -0.88646109      -1.51435079      -0.19712995      -0.45273571      -0.25171860
O     2678.86363120    1105.25469320   -5933.10927460       0.07537437      -0.81257298      -4.24269768       0.26702933      -0.29424109      -0.27771474
O     2325.07540134    1591.64398304    -455.62051912       0.63767998      -2.85911497      -0.01917015      -0.64970484       0.91605775       0.79886852
O     2326.75353484    1587.73741163    -454.64029311      -1.69818506       1.17673601       1.23264887       3.63589802       6.21396207       2.94636735
H     2326.50611331    1587.02413352    -455.05319114      -0.13777556       0.40956193      -0.22076024      -1.97581886      -6.86550082      -3.08615168
H     2325.71457589    1588.77401895    -453.27696035      -0.70953443       0.10115211      -0.23956000      -1.67864946       1.50428224      -0.93031829
H     5153.24831736     -57.57597964   -3068.16841162       0.36292915      -0.41082223       0.67178594       0.19712995       0.45273571       0.25171860
H     2322.31013718    1592.80113224    -455.60058877       0.64461285      -1.20073922       0.27135314       0.02861876      -0.60671638       1.20409918
H     2679.39734832    1104.66658738   -5933.66434886      -0.36531440       0.52320001       0.19820200      -0.26702933       0.29424109       0.27771474
H     1206.73810127    4114.90929308   -3247.95567649      -0.33056095       0.08425245      -0.06126732      -0.01011708       0.72746694      -0.53780992
C     6565.86227728     920.72657699   -1720.03955023      -0.19558315       0.19056069       2.47050853       0.56271807      -0.86004572      -1.04965283
C     -201.98327746    2654.34776806    -782.03500566      -0.20540717       0.73817079      -1.44756562       3.50109894       0.85946912       0.79490153
C     1397.81843461   -2283.99169586     691.28064647       0.28879544      -3.11609394       0.76183576       0.04138036      -0.61232196       1.61400200
N     6565.42482630     921.39516730   -1719.22356139       5.64869046       0.10707618       2.33552054      -0.56271807       0.86004572       1.04965283
C     -202.84186950    2655.12440427    -782.90614567      -0.24870286       2.38135940       3.22486512       4.61256796      -4.79313578       3.72812544
N     -201.01596526    2654.13628634    -781.38157770      -2.95477476      -0.98509084      -3.38850314      -3.56950273       0.16622443      -2.01338518
C     -731.09344682   -1853.80254024    -655.09733464       0.39157174       0.12213029      -1.50742582      -0.57808432      -4.15242840      -3.19056366
N     -203.67867202    2655.76680434    -783.23587063      -0.13603974       2.97738641       1.44201415      -4.54416416       3.76744223      -2.50964178
C     2700.59040765    4976.97131827    1851.90657993      -2.41099043       2.57609795       2.19377872       0.05308113      -0.33067361      -0.45095306
N     -731.32921917   -1854.82120737    -655.78052707      -2.72162009      -0.98965474       0.75588825       1.14363838       6.43693618       4.68374520
N     2700.70011126    4976.28790996    1850.97458820       3.64829310       1.06486983       1.48912153      -0.05308113       0.33067361       0.45095306
N     1397.84654301   -2284.40762732     692.37698835       0.23475008      -0.09212109       1.91187644      -0.04138036       0.61232196      -1.61400200
O    -1594.62072354   -3805.47562710   -6757.78035497      -1.29253089      -1.32219080      -3.48832339      -0.72522464      -0.16513263      -0.05219481
O     -293.43777312    4974.84175631     187.15239751      -0.74450176       2.90586156       1.29533638      -0.14424341      -2.28392101       3.25407120
O     -731.74491145   -1855.81050263    -656.24626535      -0.09244190      -1.28412262       1.29271724      -0.56555405      -2.28450779      -1.49318153
O       48.08028708    3565.03819960   -1988.20548313      -1.81253572       2.03980799      -0.27712446      -2.14769201       0.47769115       2.09146101
O       15.56924063   -2150.94158934   -4167.68360879      -0.30292800      -1.34056933      -1.14092443       1.03125384       1.06446124      -0.56486771
O     7458.23653710   -6263.19334727   -7533.48655304       3.11585623      -3.62334464      -1.09469250      -4.00355313       0.85961706      -0.26714372
H     -293.63500197    4974.29788642     188.01284883       0.20263020      -0.56018138      -0.48096672       1.55082928       1.02645251      -2.24304806
H       48.72509670    3564.89478059   -1988.83341031      -0.03948751      -0.16150543      -0.28253340       2.14769201      -0.47769115      -2.09146101
H    -1595.56807672   -3805.69133808   -6757.84853649      -0.50711455      -0.29517719      -0.48132815       0.72522464       0.16513263       0.05219481
H     7457.18163207   -6262.96684488   -7533.55694333       0.16246998      -0.45218790       0.23276561       4.00355313      -0.85961706       0.26714372
H     -294.31386095    4975.16925109     187.15685813      -0.28195144       1.04615135       0.36228653      -1.40658588       1.25746850      -1.01102314
H       14.96218105   -2151.56819684   -4167.35109284       0.46140929       0.54109669      -0.22703972      -1.03125384      -1.06446124       0.56486771
C     1810.72642814    2008.25004977   -1728.99453195      -0.27949027      -0.09221498      -1.79249512      -2.17797974      -1.05941527      -1.87727984
C     1809.67334981    2008.60653244   -1728.02172482      -0.23678269      -1.18837867       0.39041183       1.68028555      -1.08597015      -1.65090872
C     1812.02560035    2008.88930229   -1729.13291390       0.13892369      -1.10639529       0.43089772      -3.12128392      -0.48101953       2.57047016
N     1810.35929534    2007.38868529   -1729.96935498       0.82790604       0.22822317      -1.50115377       1.05882124       0.82982844       0.53257851
C     1810.10357203    2009.53156660   -1727.10093605       0.98846697       0.24611474      -0.17163653       0.47210396       0.58553824       1.55583822
N     1808.35531086    2007.90445764   -1727.90309475       0.11897353       0.76084073       0.80651066       1.43919950       5.59988819       3.81357509
C     1811.51614367    2009.84138257   -1726.99883555       0.42398148       1.12792361       0.63367218       2.16683248       1.73183405       1.66198443
N     1809.28060607    2010.06060234   -1726.24145228      -1.05205417       0.55368452      -1.18154999      -1.35131299       2.10213167       3.75885361
C     1812.49132822    2009.59297639   -1727.98406913      -0.14870479      -0.25607017      -1.31055174       1.32514821      -0.80782706      -1.11387634
N     1812.08351432    2010.60142133   -1725.81441933      -1.50418494       0.48903813      -1.30756125       1.22318370      -0.05418694       0.47694321
N     1813.84863621    2009.83780342   -1727.92387743       0.59555043       0.68694866       0.52235438      -5.71390506      -1.39553313      -0.91409540
N     1812.92773592    2008.51932952   -1730.12596925       0.58878202      -1.01398940      -1.24547417       0.71810260      -3.71853263      -1.61334690
O     1807.53338012    2008.32835940   -1727.05586250      -0.42145558       0.53795182       2.79782540       0.83658009      -0.02121469      -0.61832278
O     1808.11857333    2007.00897713   -1728.57176019       0.22050416       0.31011699       1.22990136      -0.85642335      -4.89419816      -3.93556816
O     1811.34860448    2011.10099665   -1724.98791367       0.04548254       0.76977978       0.42624042      -1.03291743      -0.11224795      -0.08181705
O     1813.33802491    2010.72403982   -1725.59147845      -0.86924006      -0.70111461      -0.04138827      -2.12786093      -0.81966297      -1.60369217
O     1813.62782805    2009.37507498   -1730.60226650       2.44619897      -0.54340836       0.73615057       0.67139313       0.55306742      -0.31096202
O     1813.03708406    2007.28303985   -1730.47449899      -0.05237537      -0.63388565      -0.06914638      -0.63241007       2.94957979       0.69477709
H     1809.44275622    2006.98692219   -1730.08411084       0.12273417       0.29176479       0.28952639       0.28910802       0.19563294       0.33436340
H     1811.10942187    2007.25839662   -1730.61776434       0.14701712      -0.08961984       0.11182884      -0.34262706      -0.85407526      -0.53238677
H     1809.70161771    2010.54000013   -1725.36891217      -0.05894971      -0.24771726      -0.01004532      -0.85294566      -0.81890214      -2.29341572
H     1808.24707071    2009.89810375   -1726.24759236      -0.12468572       0.13372305       0.57996781       1.84119285      -0.35393292      -0.35539747
H     1814.21522511    2009.56976581   -1728.78097977       0.24105546       0.11077113      -0.10156811       2.23664804       0.45224872      -0.72006986
H     1814.00567344    2010.28761608   -1727.09503926      -0.21040141       0.19486605       0.07778757       2.25106684       1.47696936       2.22175547
C     -225.50100417    1160.94812195   -1131.27798824       2.48826804      -1.00062063       0.28701574       1.50671605       0.67258759      -5.99496325
C     -225.69116454    1161.05684694   -1129.85458320      -0.10766078       0.96570055      -3.55998103       1.28816717      -5.05758230       1.27193910
C     -225.32399965    1160.06853335   -1128.88034959      -0.65607139       0.44638675       0.54161299       0.14941557       0.43929033      -2.24175084
N     -225.22538667    1161.01742125   -1132.45963287       0.56853601       0.77771811       0.20899300      -1.73206087      -0.59034484       6.46140705
C     -225.83908156    1162.23718369   -1129.09811957       0.29027629       0.42166839       1.57245892       1.53933660       6.67036193      -0.51780525
N     -314.00813272    1281.34838883    -807.15331196      -2.37083615      -0.19666551      -0.41250969      -4.53612916      -0.27548137       0.76940892
C     -226.05001691    1161.91939676   -1127.63733841       0.61711006      -0.65663662       0.93133739       3.01750629       2.13170814      -1.14812568
N     -225.32460981    1163.44744094   -1129.61483660      -1.41394059      -1.96592988      -1.13088040      -3.45882169      -4.92980392       1.46440367
C     -225.35990275    1160.74572249   -1127.51152526      -0.03960969      -0.74329162      -2.38158839      -0.87432850       1.04690212      -1.18062917
N      635.09307597     905.08172012   -1462.90706816       1.53094982       0.51005580       0.31049414       0.58226092       2.92455419       0.55246118
N     -224.53209589    1160.36835238   -1126.48085966      -0.45190399      -0.97371287       0.49187149      -1.70877897       3.33942611       2.54706541
N     -225.05926519    1158.47746013   -1129.16647251       0.31507682      -0.65902786       0.14559807       2.94018446       0.10128938      -1.02440337
O     -315.19913508    1281.54896107    -806.72482437       1.10301734       3.42516532       3.17115670       6.12345976      -0.40977221      -1.98113302
O     -313.46202576    1282.46149393    -807.78429487      -1.23663200      -0.77351588       1.26947907      -2.13273142      -0.99842842       2.54488560
O      634.91897747     904.82247932   -1461.73997694       1.20643558       0.43413351      -0.65921341      -0.46162084      -1.75419450       0.78427534
O      635.37587225     906.28564581   -1463.10756840       2.41673388      -2.63074509      -0.98373568      -0.12064008      -1.17035968      -1.33673652
O     -224.03913718    1158.10536712   -1129.76982479      -1.03492092      -0.58706368      -0.09287054      -3.91553549       2.37879305       2.18240815
O     -295.37467770    1304.16643182   -1189.56964307      -2.49249777       4.10670692      -2.28676261      -0.51277588      -1.51492421      -3.03382491
H     -314.13451611    1282.95410645    -807.24817846       0.10024159      -0.44992022       0.74044196       0.54540082       1.68368200      -1.33316150
H     -295.53148511    1303.70316637   -1190.49738998       0.11225435       0.00264045       0.06229886       0.51277588       1.51492421       3.03382491
H     -225.36378152    1163.25485003   -1130.64304176      -1.00676245       0.63306084       0.39391833       0.73038946       0.63239257       0.77012530