24
Properties=species:S:1:pos:R:3:forces:R:3 energy=-27550.695932342307 free_energy=-27550.695932342307 stress="7.347312093698827e-07 -2.5880248202645847e-07 1.3384404663767348e-07 -2.5880248202645847e-07 -3.157386032443897e-07 -1.6716990439054146e-07 1.3384404663767348e-07 -1.6716990439054146e-07 -2.2682490208522621e-07" pbc="F F F"
C        0.81850383       1.25630862       0.18306125       0.05114819      -0.04181632       0.01085305
C        1.49507482      -0.05492789      -0.11455129       0.05258103      -0.03932652      -0.04572482
C       -0.65951899       1.24499447      -0.01471847       0.04749496      -0.01472877      -0.01668149
N        1.50799865       2.26534766       0.56831615       0.04210962      -0.06701657       0.12510730
C        0.70484881      -1.31052657      -0.14064415       0.01143420      -0.03347831       0.00917587
N        2.82423025      -0.14227528      -0.31834178       0.04253741      -0.07975016      -0.14799809
C       -0.70260336      -1.25179963      -0.00946074       0.01085383      -0.00992638       0.01213951
N        1.33431721      -2.46113976      -0.26976168      -0.01970677      -0.04706484       0.02260587
C       -1.41463080       0.03495534      -0.01906823       0.02776380      -0.00043443      -0.00676788
N       -1.45167794      -2.48229810       0.06475413      -0.01165432      -0.00205779       0.01319991
N       -2.72922766       0.03006930      -0.02349017       0.02671434       0.01470886      -0.00795013
N       -1.35600278       2.48638038      -0.08511117       0.06179742      -0.00413414      -0.00581846
O        3.44700008      -1.13157209      -0.68167799      -0.02597131      -0.15350761      -0.03750652
O        3.67966892       0.94104473      -0.26085361       0.15291157      -0.00547582      -0.54614814
O       -2.67824915      -2.47854482      -0.02310481      -0.00913205       0.01703714      -0.01094321
O       -0.86463305      -3.54967385       0.22418533      -0.03148155      -0.00882179       0.03533948
O       -2.59615374       2.51925935      -0.13300697       0.06109987       0.00973989      -0.01376679
O       -0.72875829       3.53881778      -0.11823350       0.07705350      -0.01248520       0.01056211
H        0.91202871       3.08398443       0.57495359       0.05324641      -0.05450275       0.12996151
H        3.75801083       1.24550879       0.64684863      -0.61441466       0.58851676       0.45945346
H        0.79394266      -3.30748436      -0.18932490      -0.04316446      -0.03253256       0.01369652
H        2.32901072      -2.42983432      -0.43761448      -0.01863986      -0.06037704       0.01588761
H       -3.18239023       0.93365293      -0.03238826       0.03623849       0.01956795      -0.01181931
H       -3.19629197      -0.86373292      -0.04138498       0.01918034       0.01786641      -0.00685736
