24
Properties=species:S:1:pos:R:3:forces:R:3 energy=-27550.813200103566 free_energy=-27550.813200103566 stress="-1.6701596730714723e-08 -5.1422117894615847e-08 1.2103178260354452e-09 -5.1422117894615847e-08 -1.635325920348227e-07 -6.496339896397324e-08 1.2103178260354452e-09 -6.496339896397324e-08 8.429620631630844e-09" pbc="F F F"
C        0.76507955       1.30660170       0.15454152       0.01002451      -0.00267322       0.02675663
C        1.44199104      -0.01180135      -0.07003620       0.02953722      -0.00874441      -0.03315601
C       -0.71121555       1.26163826       0.00194852       0.00651395      -0.00267278       0.01434366
N        1.46314078       2.35266383       0.39404777      -0.00764647       0.01393577       0.05717524
C        0.69227660      -1.27347484      -0.16284878      -0.00822711      -0.01389863      -0.03510301
N        2.78296405      -0.06004526      -0.15445064       0.00594917      -0.02333941       0.00669065
C       -0.71349846      -1.24088132      -0.02663902       0.00448928      -0.00181326      -0.00768168
N        1.35276925      -2.40943677      -0.31965900      -0.02846309      -0.01896334      -0.04587964
C       -1.44442752       0.03528085      -0.00253665       0.00469126       0.00508156       0.00195921
N       -1.43881530      -2.48089182       0.04211565      -0.00280933      -0.00198604       0.00205528
N       -2.75761453       0.01279759       0.01343310       0.00505378       0.00317207      -0.00305708
N       -1.42714906       2.49043622      -0.07609811       0.00374786      -0.00189767      -0.00113662
O        3.47757984      -0.96953920      -0.63782893       0.04009147      -0.22217458       0.13362024
O        3.52669409       0.94943370       0.34649936       0.01347121       0.21287668      -0.10400693
O       -2.66791385      -2.49714675      -0.01995659      -0.00214426       0.00519560      -0.00603769
O       -0.83057136      -3.54141864       0.17407811      -0.01035720      -0.00397954       0.02053080
O       -2.66770099       2.50590653      -0.08791420       0.00266438      -0.00533110      -0.00636103
O       -0.81978599       3.55314054      -0.15093201      -0.00202467       0.00071021      -0.01354725
H        0.85150229       3.15480292       0.38130950      -0.01816722       0.00522241       0.07004893
H        4.42206550       0.58182011       0.24451548       0.00278841       0.10247144      -0.03621670
H        0.83818093      -3.27177023      -0.22925526      -0.03707818      -0.01447218      -0.00770147
H        2.34614533      -2.36326724      -0.48247757      -0.01981042      -0.03405862      -0.02129496
H       -3.22188884       0.91092505       0.01645203       0.00424199       0.00283466      -0.00050290
H       -3.21567843      -0.88486848      -0.00913192       0.00346344       0.00450440      -0.01149766
