24
Lattice="13.9116 0.0 0.0 0.0 13.9116 0.0 0.0 0.0 13.9116" Properties=species:S:1:pos:R:3:momenta:R:3:forces:R:3 energy=-27549.209113919067 free_energy=-27549.209113919067 stress="-0.0013716363570882794 0.0005864647050922235 0.0005901196501386139 0.0005864647050922235 0.0024454498719432894 0.0018857365092418503 0.0005901196501386139 0.0018857365092418503 0.002575808070003012" pbc="T T T"
C       88.85109918      17.07871943     -13.27875941       0.98253733      -1.23310187       2.04477146       0.78137966       0.45770707      -0.48391102
C       -9.54462781       7.07471711      19.06717627      -0.21192487       0.61822137       1.83892191       1.78419865      -3.95616078      -9.28188922
C       29.25842641      26.60961922      14.21560739      -0.65073283       0.34105290       0.92152640       2.10061718      -0.95881903       0.20580862
N       87.98434306      16.58199532     -12.71944373       0.70264789       0.90736369       0.12997888      -0.78912131      -0.47819485       0.47692922
C      -38.44714993     -15.52250753      39.92530381      -0.39329651       0.02154426      -0.07256444      -1.81228148       0.92116762      -0.00048521
N       10.09938996      53.84734660    -105.63122724      -1.06527903      -1.44764672      -1.75017659       0.36339017      -1.89084338      -1.95811973
C      -19.99229947     -18.00579734      -6.96092355      -1.49884574      -0.27739574      -1.64725115       0.90569907       0.26428517       0.92315413
N      -38.93644904     -14.48541297      39.81393821       1.08073308      -0.95957985      -2.20715054       0.88999438       0.64008884      -0.59897932
C       31.11912505      10.97017863      40.24974324       0.97910283       0.28106052       0.46454186       3.93576771      -7.76742033       1.32282974
N      -20.78640991     -17.94000518      -7.77872631      -0.58237202      -2.57453186      -1.41460289      -1.08064654       0.09952702      -1.13311311
N       31.49259306       9.83487652      40.48738478       1.41079485       3.30401608      -0.59935698      -2.65641942       6.23495979      -1.23542839
N       28.20822579      27.00418004      14.35031782       0.94766466       0.24805633       1.26975083      -2.47348396       0.94145608       0.29677874
O       -9.32040085       6.60641724      17.86824302      -1.16473187      -1.30855560       0.36166768      -1.18145278       2.88374166       6.27256197
O       10.24265145      53.03276768    -106.46009760       1.52382422      -0.74151546      -1.03951917      -0.35767737       1.90885521       1.96144708
O      -23.64724847     -48.34776040       6.24222080      -0.82979137       1.28130030       1.54842129      -0.56125138       1.10302794       3.02997532
O      -31.11655103      28.90753330      52.22054173       0.76159168      -0.08801611       1.16094347      -2.65959815       2.55065881      -1.52166055
O       20.43995360     -21.14553824     -15.49368561      -2.08220021       0.14634730       0.14401485       1.02063006      -2.37748072       0.90780754
O      -19.00913015     -90.05915104      -5.69750632       1.11471637       2.73358485      -0.40734305      -1.43985113      -5.09122265      -1.92548428
H      -63.60367549       6.09963464      11.79727651       0.19426648      -0.05235491       0.56958782       0.24944141       0.54087547       0.23993706
H       21.00049111     -21.83646632     -14.99619469      -0.50271498      -0.92074634       0.02052757      -1.26246328       1.83687210      -1.13684374
H      -30.36192750      56.24205082      38.24515052      -0.49560521      -0.28448744      -0.60280070       3.20195220      -2.35777802       0.34120314
H      -19.57128015     -62.91638202      49.29442302       0.08338262      -0.02071192      -0.40973192       2.29051216       3.01249718       2.69006745
H       -5.36771961    -117.04008733      35.79210787      -0.51258836      -0.07775351      -0.50100069      -0.71006360       1.68386233      -0.57233889
H      -31.09268909     -12.41843204     -46.05878547       0.20882100       0.10384974       0.17684410      -0.53927224      -0.20166253       1.17975347
