1296
Lattice="933.8090419165605 658.2335562048023 27.663884856057336 0.0 501.2951894183772 -443.9156644099676 0.0 0.0 138.74502390001172" Properties=species:S:1:pos:R:3:momenta:R:3:forces:R:3 energy=-1487462.752339989 free_energy=-1487462.752339989 stress="1.8345970506254515e-06 -2.0765762477849713e-07 2.689113176235412e-07 -2.0765762477849713e-07 2.766046102119245e-06 5.993147854524969e-07 2.689113176235412e-07 5.993147854524969e-07 2.3565102694867323e-06" pbc="T T T"
C    -1974.69093691   -4410.95654872    -333.48744513      -0.54680828       0.27160680       0.42244989      -4.64868433       1.43100745      -0.95178199
C    -1973.38344563   -4411.33609946    -333.44458617      -0.10731917      -2.10495413       0.63811008       1.00048956       0.44755708       0.09839230
C    -1975.05022861   -4409.80202257    -332.66004847      -0.40729689       0.44351744      -0.37290405      -0.50607547      -1.22419262       0.35908621
N    -1975.71057002   -4411.48715978    -334.35628564      -1.17335089      -0.77045988       1.43558354       2.86127173       0.81347087       2.28042967
C    -1972.43647865   -4410.55737934    -332.82778758       0.63537141       0.79860227       1.10355216       3.70674724      -0.23443849       2.08072855
N    -1972.99702513   -4412.31410025    -334.37333763       1.19858702      -1.49717790       0.77525537      -0.55907580      -4.84771985      -0.28183253
C    -1972.74056094   -4409.39951326    -332.12118320      -0.36028957       0.41275673      -0.42893290      -0.52404061       0.44366470      -0.86619455
N    -1971.06119523   -4410.92301542    -332.85102874      -1.60937596       0.15147611       0.20440287       0.09782888       1.84898682       1.48629161
C    -1974.12854399   -4408.95068405    -332.01047159       1.35972219       0.16852721       0.36101356       1.33363805       0.03678535      -1.27538599
N    -1971.54107699   -4408.42668105    -331.81544022      -0.98626901      -0.82780377      -1.32711542      -8.25352404       2.60903182      -3.58977780
N    -1974.44836792   -4407.72979143    -331.48465030       0.07066881       0.45797165       0.05618972      -1.68476847      -1.67293871       0.55896892
N    -1976.56052789   -4409.45952228    -332.54835454      -1.42864305      -0.23877418       0.10257452       4.18040203      -4.16219473      -0.80736833
O    -1973.70542141   -4412.27373737    -335.35356580      -0.80361322      -0.25856087      -1.34680828       1.05249842      -0.13874082      -2.07308902
O    -1972.34233399   -4413.37619137    -334.13318563       0.05025579      -2.78318825      -1.54930152      -0.02023367       3.01883177       0.34473006
O    -1970.78817337   -4408.68866094    -331.01405498      -0.57625551       0.21348210      -0.16151130       5.00264862      -1.46922551       3.62881305
O    -1971.79922321   -4407.28029004    -332.28752234       0.88637237      -0.41020123       2.06774530       1.40795106      -1.61391636       0.48366694
O    -1976.81462431   -4408.35077324    -332.71223250      -0.09508149      -2.45828593      -2.24843072      -1.97385640       5.21231618      -0.14851938
O    -1977.32536639   -4410.38124626    -332.44156436      -2.31446762       0.26872055      -0.73180239      -1.07908778      -0.76507669       0.56829805
H    -1975.47062282   -4412.14196911    -335.09810310      -0.61651678       0.12592276      -0.56929063      -0.30037416       0.75371251       0.71886409
H    -1976.59207057   -4411.08916642    -334.16682743       0.31102046       0.40085290       0.22421791      -0.91590255      -0.27000470      -0.21454195
H    -1970.64327347   -4411.74069162    -333.16772846       0.30554343       0.25595643      -0.01825537      -0.75284764      -1.98783854      -1.62796922
H    -1970.47593512   -4410.76737623    -332.02116803       0.10170119      -0.01133513       0.14656538      -1.24191959       0.92467903      -0.34130635
H    -1975.43529706   -4407.69358503    -331.08452114       0.36662878      -0.63750978       0.35771922       2.46535519       0.80227701      -0.79496389
H    -1973.66383263   -4407.12085818    -331.29339518       0.15153571       0.16416526      -0.21065404      -0.64844027       0.04396641       0.36446154
C     2590.06432248    8351.84640719   -3383.94324458       0.96329834       1.82779617      -0.43283503       5.17776333       1.79849091      -3.66500127
C     1265.18035861   -8944.76542320    5900.91003944       1.98301633       0.26853706       0.01334892       1.80679026      -2.11731347      -0.69702545
C     2588.97407382    8351.39840217   -3383.80807263      -1.49090262       1.37494780      -0.47518057      -3.98833675      -1.76859856       1.52515263
N     2591.14292273    8352.14425280   -3384.48821597       0.50963278      -0.13729069       0.14481745       0.50458857       1.25507072       1.39112176
C     2588.17502587   -3928.97140309    6102.72207387       1.16333234       1.27298134       2.86966413       1.55040089      -1.10601796      -5.12889469
N     1265.92691707   -8945.64028861    5900.62203133       0.17093730      -1.33332668       2.55831191      -1.80679026       2.11731347       0.69702545
C     2588.44868924   -3929.33016314    6101.22290502       1.29178863       1.13699171       0.28634488      -1.36259726       0.71970162       4.06778444
N     2588.68433116   -3928.47661740    6103.61690859      -0.26609084      -1.35372690       1.73666442      -0.37386317       0.68671199       2.25949600
C    -4453.57254967   -2773.42866705   -4414.27595562      -1.31362109      -1.11781150       1.34890361      -4.56905062       3.96719587       1.68850110
N     2589.11088403   -3930.47161941    6101.09238307       0.96436189      -1.45274116      -0.08773462      -1.90956076       0.61233598       2.77684590
N    -4452.76953317   -2774.12590680   -4414.57271185       1.67708717       0.43060422      -4.44983440       4.56905062      -3.96719587      -1.68850110
N    -7231.82766493   -5664.57966828   13420.93955046      -1.80777844      -2.72355162       2.28869336      -1.24825340       1.08297238       3.30653229
O     8012.20408412   -7958.42805908  -14099.29292517       1.11812378      -0.97777277      -3.23007709       6.80496450       2.06870958      -2.55374154
O   -13355.08854087    8310.48710286    6852.19572721      -2.22983007       0.77276219      -1.94361986      -0.12378048      -2.50530622      -1.37115460
O     2589.74490945   -3930.67133174    6100.11626730       1.19400354      -1.54660339      -1.55390845       2.01665787      -0.83796381      -3.35254584
O    -3447.99139568    7243.60168865   11234.61515221      -0.80544713       0.40812526       2.16839412      -0.62428556       0.22310895       0.33032999
O    -8378.85815668    2660.12414833    2917.82487351      -1.45448620       3.35239448      -3.78656972      -0.37658443       0.54393006      -0.24688398
O    -7232.22873349   -5664.23170513   13422.00195186       0.46054179       2.99499017      -3.41189714       1.24825340      -1.08297238      -3.30653229
H     2588.29909020    8350.67174401   -3384.16434881      -0.22584381      -0.17145735      -0.14805523      -0.53096709       0.06794270       0.24325801
H   -13355.13301737    8309.58690227    6851.70304725      -0.18776796      -0.43533562       0.15375612       0.12378048       2.50530622       1.37115460
H     8011.44131465   -7958.65994104  -14099.00667591      -0.66520340      -0.30661290       0.68728181      -6.80496450      -2.06870958       2.55374154
H    -3448.81223038    7243.89504088   11235.04948281       0.53560382       0.46799751      -0.09557766       0.62428556      -0.22310895      -0.33032999
H     2591.56204002    8353.07169227   -3384.68440904       0.53327604      -0.33421122      -0.83131032      -1.16304805      -1.35290578       0.50546886
H     2588.50089950   -3928.47182276    6100.58810010       0.52885965      -0.04068489       0.21683685       0.07896243      -0.07476782      -0.62268580
C      350.40571738     819.92690650   -2450.50630745      -0.75841869      -1.24500949      -0.57677489      -1.73583706       1.00685276      -1.62482665
C      349.82146522     819.04125179   -2451.35032129      -0.92382583       0.34718797       0.48343453      -0.90120721      -3.15542738      -3.61849579
C      349.97322278     821.27700202   -2450.78824579      -0.23507334      -1.23119640       0.66645222      -1.25544660      -0.40752416       0.28744766
N      351.09248331     819.50522911   -2449.45688489       0.49702251      -0.90380630      -0.60758943      -0.48912762       1.40276027       1.32262924
C      349.01295862     819.13810802   -2452.53551783       1.60904008      -2.61089470       0.83385862       1.83816653       2.21482994      -0.63838964
N      350.26215780     817.66450930   -2451.18689144       0.72881026       0.58015789       0.66885835       2.84350553      -0.01153377      -0.60143955
C      348.82099312     820.50749541   -2452.82110634      -0.10707512      -0.67507789       1.19288873      -2.63351311      -1.41629122      -1.06204674
N      348.86687836     818.06380480   -2453.45824599       0.65514761       0.55705472       0.58953121      -1.53795345       0.05959595       2.00111468
C      349.10063788     821.55881172   -2451.96130897      -2.45516506      -1.16753482       0.09398122       3.17836230      -3.73513788       2.46802202
N      347.99629703     820.99910666   -2454.04138357       0.39649759       0.04769944      -0.12042183       0.15523129      -0.52637230      -2.66316947
N      348.66462056     822.70081878   -2452.31695492       1.42424962      -1.40986055      -0.53364231      -1.22513573       6.87925687      -2.73517858
N      349.98937215     822.09135529   -2449.58258193      -2.28652044       0.94586455       1.02461103       2.97270969      -3.09926364      -0.96860507
O      351.32490245     817.29990936   -2451.67405146       0.15213693      -0.69552882      -0.46578511       0.06516200       0.74169948      -0.41671636
O      349.62532408     816.95768166   -2450.49854081      -2.44753929       0.94440374      -2.24397879      -2.64186186      -1.98937530       1.83940610
O      346.74797809     820.84602913   -2454.28140662      -0.08729615       0.16001234      -0.96277112       4.65752653       0.33825213       1.55101841
O      348.81416120     821.54924724   -2454.85261380      -0.52603104       0.27185546      -1.60517785      -2.79397402      -1.18121540       1.59678815
O      349.37840623     823.06585355   -2449.48887063       0.32043452      -0.06627628      -0.34432184      -2.96419886       4.34255555      -0.17293053
O      350.73019936     821.68360706   -2448.66640954      -1.67474275       1.99359807      -0.08878888      -0.56424965       1.44085058       0.55199468
H      351.67747472     818.72085761   -2449.41694487       0.29683271      -0.42364858       0.29137878       0.20325894      -1.12211171      -0.15662785
H      350.86525121     820.18433949   -2448.70242036      -0.29952362       0.11881408      -0.36548998       1.66939738      -1.09307659      -0.10197638
H      348.46129862     817.29541525   -2452.88964200       0.50184730      -0.18534494       0.26197038       0.69309516       0.24925097      -0.93466949
H      348.27228556     818.17454690   -2454.29966701       0.43724590       0.11752962      -0.16133778       0.54112461       0.57968841       1.05341164
H      348.47892682     822.91317528   -2453.35189925      -0.11586599       0.04558622      -0.26508708       0.25115983      -0.87379298       2.38994484
H      349.11070940     823.54540228   -2451.96032659       0.85595177      -0.27004238      -0.30388884      -0.32619462      -0.64447056       0.63329467
C    -1190.09547644   -2208.10462679     523.48629137      -2.67582941      -0.31718346      -0.30670570       1.97003314       0.19367655      -0.96218257
C    -1190.36738221   -2206.61567605     523.22190732       0.84392692       0.37376629      -0.80250244      -1.81747506      -0.61023627       2.95632351
C    -1190.87948434   -2208.94928228     522.78975191       0.84751237       1.48348743       0.28246689      -4.73668946      -0.96351507      -1.72838988
N    -1188.98547536   -2208.59322697     524.23651397       1.62703089      -0.12124531      -1.85402310       1.79712200       2.91977045      -2.27487363
C    -1191.78855521   -2206.28596859     523.04757552       1.07479879       2.61784101       1.09574618      -2.76467548       1.62853788       1.27634652
N    -1189.70732996   -2205.56327155     524.01829656      -0.22222722      -1.00618400      -0.47224216       1.16374333      -1.47934816      -0.68505033
C    -1192.76526009   -2207.34566546     522.85294888      -0.50803656      -0.68005490      -0.03635352      -0.40216280      -0.30591512      -1.55208209
N    -1192.37445338   -2204.82826394     523.16542140       1.84435405       1.11292533      -0.51609614       3.66988363      -1.68715458       0.31836450
C    -1192.29071895   -2208.62000013     522.40886124       0.55272052       0.60924596       1.15034956       0.97871629      -1.80643019       0.98998186
N    -1194.44481167   -2207.23493310     523.04195092       0.27037927       1.70772715      -0.84827135       6.64681707       2.37125707       1.65807361
N    -1193.04168796   -2209.62632896     521.77252316       0.02045983      -3.51204480       1.55642305      -0.75466190      -1.21704167       1.40261178
N    -1190.48189521   -2210.37043382     522.62817007      -0.96096455      -0.55073764       1.05742442      -0.87895495      -0.23711456       3.06655624
O    -3584.48532200   -3573.05830519   -2186.06600849      -2.44837784      -1.76455822      -2.91807936       0.34988284       0.93273433       0.64843859
O    -1188.60302087   -2205.86363441     524.47898306      -0.75087907      -0.10335056      -2.78343672      -1.72947984       0.55797223      -0.80232923
O    -1194.70735546   -2206.43219034     523.88812671       0.23336689       0.72197135       0.39827820      -1.08028905       0.64810280       0.36975391
O    -1195.12820132   -2207.99464649     522.50400542       0.83495631       1.74874489       0.47931321      -2.58599731      -2.12768370      -1.86807487
O    -1189.34076219   -2210.54876960     522.42924331       0.34581785      -0.64493036       0.77140025       4.02965742       0.19906824      -2.03647313
O    -1191.14330445   -2211.33235569     522.99964044      -0.90134147      -0.62237432       1.48934978      -2.28751736       0.50597222      -0.45105720
H    -1188.47046411   -2207.66842397     524.02313180       0.89913147      -0.29310383       0.11185938       0.68576562      -2.13348960       1.98689669
H    -1188.31365680   -2209.44172976     523.98282435      -0.12629158      -0.30250494      -0.17980765      -2.86401182       2.35541618       0.07342569
H    -1191.46861424   -2204.22600319     523.25669761      -0.27357964      -0.87024739      -0.05262588      -2.63080564      -1.23807237       0.14122183
H    -1193.12147225   -2204.56601198     523.88686945       0.07911328      -0.52126158      -0.15734635       1.73037595      -1.31803887      -1.34645903
H    -1194.02375258   -2209.31590632     521.59119841      -0.02763160       0.06445582      -0.18534976       1.45342638      -0.64211928       0.28472104
H    -1192.98439023   -2210.73999047     522.07130519       0.17454963      -0.28883234      -0.47361934       0.40717982       4.38638583      -0.81730519
C     1570.46876792    1767.49796487     229.27160340       0.87265497      -1.21538673       0.37923123       0.59917729       3.67911614      -2.20491994
C     1569.83056175    1768.74566507     228.64391542      -1.37588593      -0.14930855      -2.56047086       3.10840801      -1.83079111       0.82899228
C     1773.55775480    1800.98246201     292.20154746       3.32376746       0.06328135       3.47509018       3.64925026       3.99683555      -0.32430275
N     1571.00233444    1766.50561275     229.20081717      -0.50964569      -0.25932931       1.48293143       1.11748183      -2.76515886       0.54781153
C     1570.54222220    1769.84379041     227.89788360      -2.28985588      -0.96201704       0.08488194       0.37360379      -0.52176222       1.47559175
N     3837.53015553    -753.45599595   -1192.03996895      -0.59361416      -0.26219966      -0.28464025       1.78668154       3.38894076       1.06818506
C     1559.31151718    1870.23161585     235.21389591      -2.80916783       3.11377437       0.94117478      -3.89010812       6.07803864      -0.71843848
N     1571.14443159    1770.82165390     228.00761324      -1.04982368       2.91383381       2.74310374      -0.14673228      -0.12589257      -0.69508567
C     2265.89418138      87.06913075      67.38406248       1.08163380      -2.35527518      -0.64117263      -1.12147617       0.83016331      -3.62303124
N     1559.89991729    1869.31227930     235.32256366       0.54511602       1.42904872       0.25354299       3.89010812      -6.07803864       0.71843848
N     2266.21834761      86.82916942      68.43131111       1.58964454      -1.09959840       0.04342287       1.12147617      -0.83016331       3.62303124
N     1772.57508951    1800.44336403     292.25316777       0.16686211       1.18521812      -1.00175726      -2.79937510      -2.19465870       0.19085345
O     3837.95929624    -752.20706093   -1191.94418747       1.75999080      -0.39361224      -1.16223524      -1.40241311      -3.09500997      -0.67766492
O     3837.93440679    -754.24842689   -1191.22190369       3.79682795      -1.92417403      -0.59945727      -0.38426843      -0.29393080      -0.39052014
O     5927.94594991   -1041.52149332   -2286.07808721       2.24135632      -1.54540406      -1.06965829       0.16553687      -0.10930604       0.38992877
O     2191.92604679     613.83744151   -7552.72497063       1.49731953      -2.21878957      -4.25850071      -3.71510874       4.70712161       0.33201209
O     1568.71779661    1768.75052919     228.93973517      -0.99149179       0.03879369       0.72629734      -5.05193864       1.56448862       0.04761005
O     1886.52569821    2339.58234965    1571.41778498      -0.05770650       1.36927524       3.21304350      -2.87638356      -3.30177566       1.70370883
H     1512.04402113    1537.54303973     159.11692371       0.05865757      -0.69665358       0.65162136      -0.40289257       1.85609749      -1.76575692
H     1887.06880575    2340.20577807    1571.09609731       0.01942498       0.51989077       0.36164522       2.87638356       3.30177566      -1.70370883
H     5928.31223703   -1041.76335723   -2285.21528311       0.27759806       0.67455521      -0.05841518      -0.16553687       0.10930604      -0.38992877
H     1511.90874602    1538.16624259     158.52405358      -0.38317605       0.03013495      -0.79758328       0.40289257      -1.85609749       1.76575692
H     2192.46364477     613.15629346   -7552.77301472       0.48135387      -0.26989808      -0.04069161       3.71510874      -4.70712161      -0.33201209
H       24.90420368    6078.49986337   -5713.56401363      -0.15616165      -0.03231879      -0.03002374       0.37658443      -0.54393006       0.24688398
C     7809.25035764     765.16491626    1650.65959407       0.56099270       2.42583857       3.23890282       0.56151354      -0.00693269      -0.08287454
C     -932.68103071    3548.87542539    -923.90008530      -1.94078183      -0.54745782       0.09700622       0.37467091       1.47842324       1.56361768
C     1406.27029443   -3559.35464612    2089.81746723       0.28476043      -1.69276519       2.67502270      -0.00323752       0.09696040      -0.00550596
N     7810.39878969     765.15073722    1650.49009544       2.95145072       0.16695658       0.82031046      -0.56151354       0.00693269       0.08287454
C     -933.42604318    3548.86539710    -925.23176125      -0.45340126       1.75685565      -1.50046571       5.92104074      -0.18753393       6.58479809
N     -932.30982916    3549.13049664    -922.79796248       0.94321458      -0.84900718       0.52462906      -1.36860873      -1.27433156      -4.45191681
C     -595.44991717   -2466.85874985     -74.58760962       2.23164108      -0.61782474       0.84828021       0.29493716      -1.97116642       3.10750614
N     -934.39661199    3548.85440735    -925.76256146      -2.32700267       4.30524997       1.67450403      -4.92710292      -0.01655774      -3.69649896
C     2813.55550484    6057.30714146    3450.80523035       3.05215309       2.18513691       3.03282440       0.08207810      -0.38737283      -0.52289345
N     -595.72600756   -2466.50755823     -75.62584629      -0.32128497       1.42689489       1.90723699       0.15002698       3.62698029      -4.21621575
N     2813.41168627    6057.98590238    3451.72145268      -1.74193250       1.41446488       0.59434915      -0.08207810       0.38737283       0.52289345
N     1406.23176692   -3558.20078717    2089.75194463       0.26886231      -1.40708042      -0.25331909       0.00323752      -0.09696040       0.00550596
O    -2655.01034129   -4728.77393976   -8549.11793825      -1.64371856      -1.92572521      -2.77972908      -0.56838135       0.15112916      -0.12066995
O     -768.12438489    5980.63990258      -7.69631282      -0.87950496       0.37724740      -1.42060854      -4.44329171      -3.78968978       3.53625851
O     -595.80744354   -2465.82031673     -76.66289425      -1.79825455      -2.47241178       0.48208855      -0.44496415      -1.65581387       1.10870961
O    -1105.28085835    4594.67693553   -2287.28836496      -1.15991607       1.79343154       0.63340624      -1.19045228       1.27633147       1.35999386
O      116.68802973   -2514.07830231   -4500.10372541      -0.24693540      -0.81083614      -0.85768388      -2.01189202      -0.96548318       2.02845063
O     8428.12664791   -8967.02403692   -5770.56105567       2.82447852      -3.93207132      -2.19610776       1.21219001      -0.14777227       1.90133600
H     -767.26778934    5980.87422519      -7.78120749       0.22726252      -0.90400946       0.01021805       4.34455927       1.14187988      -0.37455832
H    -1105.82305456    4595.25824577   -2286.66895036       0.07388693       0.57867476       0.16882636       1.19045228      -1.27633147      -1.35999386
H    -2655.92972709   -4728.52948063   -8549.31312805      -0.53659249      -0.17981156      -0.46874532       0.56838135      -0.15112916       0.12066995
H     8428.66793432   -8967.09002255   -5769.71204080       0.63427375      -0.22405118       0.31094481      -1.21219001       0.14777227      -1.90133600
H     -768.13495162    5979.95240875      -6.87192531      -0.27948957      -0.02668049      -0.26291828       0.09873244       2.64780990      -3.16170019
H      117.29625529   -2513.78642206   -4500.71695689       0.41452131       0.03959091      -0.58412774       2.01189202       0.96548318      -2.02845063
C     1612.28310211    1814.68901652   -1316.33954709       0.86020106       0.72077033       0.59171999      -1.89619972      -1.67581525      -2.69485534
C     1613.52852260    1815.10790644   -1315.88285192       0.04239436       1.65116945      -0.06755980       0.70106350       0.23494250      -2.11341391
C     1612.18032997    1813.92154621   -1317.57179956       0.49478671      -0.97977861       0.59761542       0.85721311       0.59598775       0.69401776
N     1611.09538762    1814.96490354   -1315.68810093       0.51824202       0.31846585      -0.23515831       3.85575517       1.04226067       2.56560575
C     1614.75429803    1814.85824229   -1316.56386194       0.86880457      -0.01452583       0.63459055       0.22866462       1.16024791      -0.72728752
N     1613.61981198    1815.97492084   -1314.74535487      -0.91997010      -0.79246416      -0.41156519      -0.62835925      -1.06322627       2.21395325
C     1614.67763282    1813.89356100   -1317.61803623      -0.61182341       1.77888077      -1.53451138       2.12368569       0.43600998      -0.27194823
N     1615.75791293    1815.79724077   -1316.29074137       0.26595086       0.15002088       0.19288598      -0.67748307      -1.78197256      -0.22057819
C     1613.45498769    1813.61667412   -1318.25421095       0.08005507      -0.33430459       0.34871621      -2.62860073       0.64054995       2.56026615
N     1615.96919293    1813.57295470   -1318.35673803      -0.01418549       0.01914004      -0.78154939      -1.96334354      -0.40059376      -0.49318368
N     1613.40512618    1813.12299960   -1319.43053026       0.23439821      -0.00984949       0.57970924       3.47050599      -0.98608208      -2.35433627
N     1610.83452582    1813.42718338   -1318.15502160       0.72451803      -0.94162593      -0.57325217       3.70134131       0.83105110       0.87634174
O     1613.64154968    1817.18513840   -1314.76430406      -0.48677930       0.81270349      -1.19575936       0.05528874       0.05319791      -0.71194845
O     1613.67151983    1815.30083117   -1313.72054709      -0.36337393      -0.05459830      -0.19206351      -0.09486203       0.63543839       0.39312537
O     1616.93877256    1814.11963546   -1317.95205120       1.83273210      -1.04421592       1.20543611       1.80567515       0.92028209       1.04171213
O     1616.03182326    1812.79460763   -1319.32567371      -0.78237420      -1.31796995      -0.37446040      -0.90151924       0.41168341       0.78073209
O     1610.97865896    1812.77020216   -1319.16650344      -1.11019387       1.01488558       1.34692199      -1.44839392      -0.31300740      -0.39390628
O     1609.78226777    1813.66318799   -1317.61877618       0.07776881      -0.78565847      -0.56423457      -0.43558582       0.02464143       0.11552368
H     1611.38749495    1814.72821088   -1314.73957279      -0.13284590       0.17960293       0.07984638      -1.10555606       0.75499960       0.41814657
H     1610.33900291    1814.42962039   -1315.95078465      -0.00017917       0.37485619       0.11028077      -1.83056393      -1.20760954      -0.94024503
H     1616.77185345    1815.79649505   -1316.45830336      -0.16349527       0.29606194       0.03850494      -1.37116889      -0.56248523      -0.20685089
H     1615.30980312    1816.59659037   -1315.90866017       0.33368194      -0.27958001      -0.19153585       0.66821758       0.84065866       0.39798268
H     1612.55271365    1813.03349431   -1319.86801191       0.15747338       0.06385562       0.38749314      -1.85089857      -0.49236051      -1.05521472
H     1614.30289490    1812.93954395   -1319.88816429       0.08898875       0.08151737       0.08103300      -0.63487609      -0.09879872       0.12636133
C       11.32199032     349.07091293    -599.17862891       0.49651078      -3.68499330       2.90227172      -0.84108190      -1.26784472       0.71246800
C       11.19770210     348.33344633    -597.98795984       0.92302386      -1.08078431       2.65167356      -4.50658954      -1.84457209      -1.00684105
C       10.24982048     347.56805214    -597.42450723       2.01548071      -0.94837233       0.97618894      -4.19291001       0.48640298      -2.41885835
N       11.62576957     349.72724417    -600.04697096      -0.02835666       1.93775870       1.23364396       0.38247243       1.33793345      -1.94523946
C    -1099.44243109     558.40498405   -1759.83927950       1.42744081       2.95851000      -1.49239078      -2.96518036       0.09139213      -1.24852866
N     -834.64172194    1683.42586919     256.80117787       2.08186472       1.52611048       3.40423185       0.62266017       1.37493939       0.91558935
C    -1100.30168706     557.38182908   -1760.06648601      -3.39243332      -1.10938765      -2.34297838       6.04586478      -2.56342401       3.68017378
N    -1099.10957485     559.50514857   -1759.75896490      -0.75761216      -1.17082825      -3.82887459       1.97512678       1.52136527       0.63556122
C        8.76536030     347.35207181    -598.13779239       0.52087640      -0.83466551      -1.08292554       4.18314487       0.93689066       0.56625217
N     1782.88339673     373.86306709   -1488.94222117       2.34032287      -1.28742994      -1.92014584       0.72399215      -0.65125133      -0.63069071
N        7.88737563     347.37829746    -598.88037329       0.92208012      -0.45244131       0.30143488      -0.18900985      -0.24981715       0.43652488
N      244.42089198    4007.04257455    -438.04095730      -0.27714537       3.34495394       0.49355855      -0.24947798      -5.49747301       3.08872104
O     -833.75343935    1684.18808202     256.64371146      -1.22273298      -0.42959171       0.40341404      -1.44013259      -2.61893925      -0.41813369
O     -834.44272170    1682.07583048     256.29747605      -3.77417227       0.64585194       0.86258928       0.58294001       2.91989759      -3.31646058
O     1782.58733298     373.06128240   -1488.06859489       0.84247238       1.25165681      -0.01286965      -0.33791691       1.07512922      -0.15017429
O     1782.54106127     375.01345156   -1489.12963665       2.26742371      -1.38096363      -0.48771322      -0.38607524      -0.42387789       0.78086500
O      244.37099297    4005.94300486    -437.42317090       2.37833900       4.44191210       1.93580754       0.24947798       5.49747301      -3.08872104
O    -1790.28689357    4020.46381522   -2690.53642044      -2.48895775       4.09509695      -1.54777608       0.77260842      -2.32480390      -1.73594606
H     -834.28571750    1681.47626346     256.96762125       0.37674157       0.10089300       0.68604417       0.23453241      -1.67589773       2.81900492
H    -1790.02130837    4019.66466071   -2691.13315426       0.00844691      -0.11111688       0.00964739      -0.77260842       2.32480390       1.73594606
H       10.16174453     347.26855948    -596.40047492      -0.51326886       0.08815232      -0.54622969       0.85782504      -0.18590826       0.23765777