1296
Lattice="1015.7763412990855 846.8467771584125 124.98442792349589 0.0 594.9286681100964 -422.7702409935431 0.0 0.0 146.30224670896942" Properties=species:S:1:pos:R:3:momenta:R:3:forces:R:3 energy=-1487456.892070718 free_energy=-1487456.892070718 stress="1.5470618669990558e-06 6.368730140479138e-08 7.222381414311962e-08 6.368730140479138e-08 1.2615457707925996e-06 -6.001642922671177e-07 7.222381414311962e-08 -6.001642922671177e-07 1.3231533128065612e-06" pbc="T T T"
C    -2249.22018514   -5522.98733487    -852.12654715      -1.66083491       0.77198477       1.16440791       0.32892972      -0.70372838       0.65157996
C    -2249.36357876   -5522.28335716    -850.87977071       0.51009104       0.06516038      -1.72585429      -1.22345706       0.27422945      -0.73053884
C    -2248.19575091   -5523.91314312    -852.21248054       0.33502768      -0.63077792      -0.65991098       0.33903476      -0.70015813      -2.21513962
N    -2250.00435328   -5523.04444863    -853.21439012       1.70430749      -2.41545311      -1.03578062      -0.27291396       2.19544185       4.06893900
C    -2248.42092120   -5522.35192528    -849.80462480      -0.23313960       0.60050808       0.99649193      -0.27097255      -2.78212085      -2.36293848
N    -2250.66157188   -5521.75354703    -850.50730202      -0.06074987      -0.10825017       1.01754735       2.70118484      -0.03627070      -0.03131251
C    -2247.57189083   -5523.45075238    -849.94360009       1.30575397      -2.36043589       1.12463375       1.82613817      -3.44562104      -1.63248044
N    -2248.45387902   -5521.69632327    -848.70262540      -0.14806853      -0.32107389       1.02947245       1.69394975       0.83288775       2.00218761
C    -2247.54364450   -5524.37044097    -851.14987743      -1.20966477      -0.32340057       0.77901334       3.62531887       0.09742450       2.50104593
N    -2246.57728614   -5523.84781121    -848.99385992      -1.71385138      -0.43811049      -0.08312653       0.24188275       2.52948324       1.19483595
N    -2246.67052011   -5525.46190357    -851.43128088      -0.57161102      -0.22099705       0.51183635      -1.96484509       4.71127829       1.76851245
N    -2247.66780578   -5524.51365605    -853.59000961      -1.01497038      -0.06472585       1.28621798      -1.88785448      -1.77265288       1.24334796
O    -2250.75067337   -5521.47707349    -849.30920992       0.52951167       0.26856187       1.92843941      -2.38580386       0.32454726      -1.31917333
O    -2251.47019942   -5521.63029793    -851.39810490      -1.69840840      -0.16188408      -1.85256890      -1.21270158       0.36873552       0.30629247
O    -2246.15972375   -5522.94583404    -848.19090577       0.05319897       0.72038862      -0.01754660      -0.56964302      -2.28352429      -1.16830429
O    -2246.15539522   -5524.98606703    -849.03410334      -0.80226258       0.33059957       0.61774307       0.41568701       0.39474150       0.96820344
O    -2247.01244212   -5523.81348230    -854.26952230       0.67163658      -0.46321177      -1.76442750       0.75841668       1.43164860      -0.79629943
O    -2247.90901226   -5525.71005071    -853.86214845      -0.28129198      -0.99383589      -2.63335122      -0.22033941       1.60644808       0.62945869
H    -2249.71426881   -5523.65125978    -853.86545140       0.22233622       0.38263934       0.36711684       0.49476759      -1.97738781      -3.26834953
H    -2250.53408107   -5522.24920719    -853.27536928      -0.28215582      -0.18927964      -0.49855398      -2.12837691       1.64363260      -1.24782271
H    -2247.91356454   -5521.99686316    -847.94831796       0.06746566       0.02015579      -0.39055369       1.78900906      -0.84604717       0.62225696
H    -2249.09503787   -5521.08932728    -848.34327245      -0.07932581      -0.13575629       0.04827640      -2.44498807       1.68425712      -0.43000927
H    -2247.12954435   -5525.97263811    -852.08523041       0.11707635      -0.48568599      -0.23547081      -0.40509056      -2.62544094      -1.94492261
H    -2246.00795000   -5525.73263175    -850.78221819      -0.50551355       0.31649812      -0.22586350       0.77266734      -0.92180358       1.19063065
C     2851.30668386   10404.41948414   -2904.71562598      -1.91027598       1.19345196      -0.77527622      -1.93467085       0.22868842       2.99719919
C     1764.61254396  -10713.03341592    5918.20970112      -0.01636187      -1.30158429       2.15237259      -1.54033163       1.25084651       0.82291338
C     2852.42159490   10404.73397479   -2905.23018820       0.42969391      -0.65518896      -0.76436601      -2.05751491      -0.58253004       0.47333257
N     2850.32025580   10404.22645930   -2903.87676399       0.82994585       1.71410675       0.18930478       3.69636448       0.59541092      -2.57334299
C     3146.81810036   -4610.99916271    6412.37987216       0.83798005      -1.61436491      -0.02973904      -0.97110541      -0.41138903       3.28383944
N     1763.76820349  -10712.34775817    5918.66078519       1.84555323       0.36269291       0.11175385       1.54033163      -1.25084651      -0.82291338
C     3146.76462192   -4610.44963926    6411.11992447      -1.15900773      -1.28835035      -0.06790589       0.59925447       3.03986694      -2.15406703
N     3146.68331198   -4611.26593536    6413.52884684       1.63793366       0.18253255       0.72091567       0.66581689       0.29730040      -3.15552223
C    -4775.45684592   -3741.89731510   -5619.66930470       2.54479700      -1.30503471      -3.20530937      -0.79102308      -1.43689580       2.57029860
N     3146.58573196   -4609.05885292    6411.06711731       0.78670988      -0.03624706       0.20197987      -0.25215894      -1.06043909       1.43251195
N    -4775.16399624   -3741.36535277   -5620.62087127      -2.20651275       0.66094932       0.64317329       0.79102308       1.43689580      -2.57029860
N    -8077.17332379   -7194.46765053   13185.38845735      -1.29210806       2.34595505       1.68238366       1.58079739       4.65636844      -3.70535796
O     8992.02734515   -9305.47369810  -15542.12492154       1.74331425      -0.72236210      -0.43284260      -4.27167339      -2.36633861       0.61139163
O   -15182.72381111    9016.57820109    6986.88071126      -1.79946555       0.06668187      -1.42773780      -0.80232058       0.37014780       2.68615824
O     3146.64522408   -4608.50086970    6409.99211110       2.21504490       0.81999645       2.01118494       0.09544606      -0.65378667      -0.17525740
O    -3824.97785750    8601.16312108   12937.00035565       0.15551511       1.21617877       1.54679349      -0.10732027       0.40718874       0.10094955
O    -9539.89801380    3510.52974675    1960.64076625      -1.28645092       2.51170475      -3.02947731       0.11428337       0.11756113       0.11194596
O    -8076.85070076   -7193.51733789   13184.63223529       0.14798291      -2.06583329      -2.64686439      -1.58079739      -4.65636844       3.70535796
H     2853.10433357   10405.37704571   -2905.73213012       0.62837867      -0.30585069       0.23465082      -0.01376279      -0.20809868      -0.10552115
H   -15183.01495850    9016.71252092    6987.85546872      -0.16132404       0.47732063       0.09422093       0.80232058      -0.37014780      -2.68615824
H     8991.05408434   -9306.01284621  -15541.98562168      -0.74374993      -0.57999883       0.09865660       4.27167339       2.36633861      -0.61139163
H    -3824.74179486    8600.26746501   12936.77830610      -0.38467642      -0.52041736       0.21781300       0.10732027      -0.40718874      -0.10094955
H     2849.40001608   10403.85959638   -2904.02938438       0.26807873       0.03122944      -0.59108369       0.30958407      -0.03347062      -0.79166762
H     3147.06425153   -4610.69099686    6410.09198699      -0.17755722       0.14311495       0.19829390      -0.13725307      -1.21155256       0.76849526
C      306.13207905     907.52576608   -2545.66454477      -2.00262894      -0.03929980      -1.48511749      -0.32836386       0.93974349       0.40766427
C      307.59686376     907.57385693   -2545.61913298      -0.27999032      -0.16966696       1.00074605      -2.98967690      -0.56289807      -0.98971928
C      305.40241841     906.58126055   -2546.39925872      -0.73858511      -0.07107914      -0.64245655       0.61230927      -4.02315593      -3.06797819
N      305.38986392     908.38774050   -2544.97969751      -2.78580490      -2.02206153       0.82843160       3.85082631       1.15345991       2.25376971
C      308.21314439     906.45070423   -2546.21654700       0.40042205      -1.29847701      -1.72344663       1.08874202       0.97068838       2.52302129
N      308.30673888     908.66885608   -2545.08022083       0.55496831       1.35646820       1.12209787       1.03644150       0.86121149       1.30334522
C      307.45556870     905.47445221   -2546.93347056       0.26313414       0.81444047       0.63706829       1.55799448      -2.96619834      -0.42642802
N      309.44963427     906.23737001   -2545.65711791       0.68318866      -1.62876676      -0.13625565      -2.63847417      -6.21741537      -5.73770243
C      306.05796510     905.25568349   -2546.85574908       0.03411267      -1.36550897      -1.50051378       0.32421804       1.82310395       2.51018045
N      308.32994676     904.13261500   -2547.25491834       0.99728226      -1.76237228       0.55423351      -2.33960101      -2.67428979       2.49853951
N      305.43388928     904.04103818   -2546.70889521       0.33414239       1.08070744      -0.15103628      -0.47757783       4.07257048      -0.67214058
N      304.09056675     906.89384371   -2546.96443420       0.42619934      -0.58987253       1.17480426       2.67433133      -4.16640990      -1.73873082
O      307.67630854     909.45074796   -2544.25273720      -0.76216900       0.98815263      -1.41676648       2.86989410      -2.06749393      -2.71705196
O      309.55081578     908.74161144   -2545.42561839      -0.46188573       0.07366413       0.15603048      -3.89404202       1.12414188       1.70836002
O      309.34520919     904.10428513   -2547.85943822       0.19799652       0.44956079       0.35405299       1.31463637       2.07219300      -1.06090556
O      307.91720235     903.01832204   -2546.77593021      -1.43371083       1.13960117       1.09478663      -0.41978308       2.72958134      -0.54260174
O      303.63855468     906.22838019   -2547.94390297       0.42256688       0.95165817      -1.03265871       0.88905471       0.86398353       1.97464913
O      303.57818147     907.81913804   -2546.47914958       1.82853275      -0.25969770      -0.66057428      -3.72684511       3.43549095       0.64958776
H      304.45655650     908.48843988   -2545.06904925      -0.01598096       0.09081888      -0.00382515      -3.25786928      -0.17822678      -0.66183970
H      305.78605597     908.77982967   -2544.13644984      -0.11163824       0.23159851      -0.57002331       0.48439091       0.34135563      -0.62942908
H      309.98229816     905.58672232   -2546.23782740      -0.08604978      -0.52776773      -0.02609719       0.31622612       0.33470521       0.82111825
H      309.91183823     906.85805220   -2545.15139837      -0.31620555      -0.06903913       0.52572349       2.13613456       3.64064260       2.17872812
H      305.85883316     903.19682708   -2546.90381672      -0.18131478      -0.51783225      -0.54804353       1.48542652      -1.67506279      -0.49847812
H      304.43922335     904.05930094   -2546.74220397      -0.39908535      -0.34959156       0.65816563      -0.56839298       0.16827906      -0.08595825
C    -1231.58694779   -2689.30960497     299.95768996       1.88743189       0.63206741      -0.78694116       1.80787733       2.40677919       0.21083393
C    -1232.21790797   -2688.86825463     301.18613780      -0.86637553       1.15247402       1.05827856       0.12361016      -3.97848409      -3.23813753
C    -1231.76275915   -2690.49775552     299.32022717       0.07755878       0.16133918      -0.12131102      -0.00641247      -1.72477250       0.82704529
N    -1230.77092865   -2688.31022000     299.51948108      -0.61412853      -0.66682008      -0.12737172       0.98335691      -0.78715557      -4.29881382
C    -1233.13149695   -2689.84822886     301.68513246       2.41585648      -0.23097449      -1.25241843       0.24959685      -1.47467144       1.84790062
N    -1231.66376371   -2688.11898585     302.12230747       0.50464003       2.15495898      -2.85267209      -3.90401767      -0.85644330       3.32091630
C    -1232.95846427   -2691.31206431     301.34197031       3.26868255      -0.20354550       0.38616678      -1.64858073       0.22515909      -0.48889812
N    -1233.90285389   -2689.29511586     302.60105241       0.26454435       0.64846934       1.60365164      -5.29318248      -3.03299946       2.37505819
C    -1232.59801112   -2691.57382503     299.96725379      -0.79098064      -0.43485173       0.23972416       2.76845379       5.51581065       3.04127200
N    -1233.42835768   -2692.60292025     302.15831639      -0.00634893       1.46436855      -0.27144595      -1.73710097       1.12768757       0.32469011
N    -1232.72399078   -2692.70066403     299.42263438      -3.03474787       0.39512123       0.95425508      -0.86159878      -2.31083672      -5.50287628
N    -1230.79457863   -2691.06962703     298.31674754      -1.34539390       0.86013227       2.89156559       1.82092220      -1.83041095      -0.79105906
O    -4716.97916541   -5191.74791666   -3772.39562375      -2.19479444      -1.20640202      -2.43812892      -1.83026695      -1.73053241      -2.16753531
O    -1230.75034920   -2687.39791018     302.03092156       0.47324799      -0.21513529      -1.38811187       3.82670152       2.44674917      -1.61242683
O    -1233.55844720   -2692.53755053     303.35976778      -1.52257699      -1.29775297      -0.29257033       0.88210875       1.65866119       0.37783180
O    -1233.79762107   -2693.65086646     301.62305515      -0.71811735      -1.35662226      -0.06917926       0.78074769       0.83996421      -1.48242815
O    -1229.50741913   -2691.29971333     298.38751706       1.71145721      -2.28132344       0.87312195      -4.66657134       2.03296138       0.66607067
O    -1231.43953377   -2691.59438710     297.40100534      -1.25192330      -1.77946819      -1.13309593       0.84954851       0.52799963      -0.10515631
H    -1230.23900507   -2687.84299362     300.20323635       0.19647289       0.20725317      -0.40821307       0.34152703       0.87184304       0.92149857
H    -1230.37293031   -2688.29034769     298.51581059       0.50943460       0.46903023      -0.22184008      -0.82962218      -0.48698616       2.62174369
H    -1233.91843403   -2688.35150604     302.86059125       0.45259139       0.02215218       0.53252428       1.46647982       1.40055389      -0.53396697
H    -1234.86546814   -2689.65551836     303.04777512       0.61714771      -0.09690789       0.47756604       3.31677432      -0.39884012      -1.58610411
H    -1232.63205016   -2692.59639596     298.32379489       0.12472100       0.33685176      -0.30677410      -0.13962823      -0.92152623       3.04196334
H    -1233.49920746   -2693.18927936     299.81737505       0.52757776       0.31351860      -0.22820719      -0.13099005      -1.25104245       0.06304268
C     1395.86957425    2222.60484163     624.39793405      -3.34245612      -0.18767855       1.60235003       0.86598034       1.65659929       3.94765406
C     1396.01620245    2221.59429892     623.47544980      -1.17018816       0.50209445       0.95021460      -4.87792663      -2.88876154       0.78576875
C     2575.72426717    2525.44338232     970.52116748       2.94517547       1.40637606       0.06935177       0.08828820       0.39622500       3.77586795
N     1396.11676882    2223.13331899     625.38854961      -0.75199374      -0.79406667       1.23546555      -0.39718368       0.65147766      -0.04724935
C     1394.96645909    2220.42055451     623.81512439      -2.18816338       0.03351736       1.04453097       1.96434824       1.30140879      -0.67864116
N     4679.96798170    -879.04055361   -1382.73318411       0.45674845       1.23052992      -0.27866272      -1.27261029       0.52799882       6.07921175
C     1289.73430534    3160.36933902     708.96417823      -2.08138120       3.95080101       0.10824553      -0.10158506       0.09343706       0.00912411
N     1394.01876325    2219.79029286     623.94337780       2.85478575       0.63822302       0.00030949      -0.02159235      -0.16708257       0.06167185
C     2935.66807936    -404.37343578      36.40450171       0.94991185      -2.16244220      -0.14605770      -0.65893887       1.94277072      -2.60411273
N     1288.86876029    3161.11963560     709.12606473       0.28952797      -0.08522245       0.57486637       0.11178675      -0.08007753      -0.03016561
N     2935.89202926    -405.03371450      37.28954708       1.28824496      -0.83557252      -0.21099972       0.65893887      -1.94277072       2.60411273
N     2576.46237308    2525.25853907     971.43802150       0.14083024      -0.75846343       1.86034181      -2.43822927       0.49427252      -4.04820057
O     4679.15541565    -879.43311687   -1381.79874905       2.65356455      -1.84489277      -0.28440414       1.54309936       0.80906149      -1.51779555
O     4679.85763846    -879.39503661   -1383.82270850       1.10463129      -1.64748254      -1.19538467      -0.27048907      -1.33706031      -4.56141620
O     7141.81959693   -1046.41880694   -2581.46276981       2.18085688      -1.02161864      -0.48420185      -0.17840439      -0.48450255      -0.08722840
O     2928.92471036     191.74367577   -9005.38876920       1.74084250      -1.77883281      -3.20377064      -0.57273745       3.42879609       2.01833156
O     1396.47187948    2221.81355861     622.44366982       0.05964447       0.36630222      -2.20567176       2.46637408      -0.55364163      -4.06920416
O     2040.64844934    3434.27568871    2925.07167402      -0.22637659       1.37700201       2.41192322       1.63620974      -0.25330768       2.89997103
H   -12311.39171223  -20302.54832862   -3377.53973275      -4.22716537      -4.88890520       3.19958709       0.00000000       0.00000000       0.00000000
H     2040.20410272    3434.34447966    2924.28412687       0.18647582       0.00973479       0.57251562      -1.63620974       0.25330768      -2.89997103
H     7142.14359756   -1045.53890071   -2581.30435411      -0.02298492       0.11287962      -0.63398421       0.17840439       0.48450255       0.08722840
H     8149.52652269   19432.60285157   12722.79219618       1.39456738       3.27666946       2.33033114       0.00000000       0.00000000       0.00000000
H     2928.77126205     192.66232182   -9004.84801605      -0.06047693      -0.25945856      -0.45081137       0.57273745      -3.42879609      -2.01833156
H     -397.35623968    8158.07801248   -6504.28455691      -0.11086440       0.15954214      -0.55547264      -0.11428337      -0.11756113      -0.11194596
C     9590.47674141    2204.61667577    1382.24278982       1.45635776       0.29065677      -0.78099043      -2.29766605       2.47077045       2.51612898
C    -1355.13695467    4569.84638312    -610.99549591       0.00350275      -0.38513021       0.38898179      -0.11329176       0.80202300       0.63994049
C     1629.26049051   -4697.44639599    2351.59957985       0.18941193      -0.84796307      -0.32893190       0.04148645      -1.29292456      -0.05359902
N     9589.82079103    2205.32204495    1382.96110820       3.89969716       2.46938893      -4.38872903       2.29766605      -2.47077045      -2.51612898
C    -1354.96659967    4568.69510941    -611.69626587       0.62824728       1.52393577      -1.69301527      -2.34347572       6.68846727       2.92923591
N    -1355.10641150    4570.73046820    -610.27563000       0.43504084       1.49953532       3.19676147      -0.24907430       0.90509660       0.40918186
C     -633.71430534   -3159.30460486      24.17321490      -1.02619094      -0.26695906      -1.58225711      -0.63507305      -1.98407772       0.75400835
N    -1354.61876554    4567.75416079    -612.10900211      -4.27518938       1.18642266      -1.40334821       2.70584177      -8.39558687      -3.97835826
C     2940.75458287    7974.32903223    4691.47860223       1.41705602       1.31118769       1.16704058       1.37408110      -2.47425502      -2.64802513
N     -634.36762773   -3160.11800357      24.76195414       1.23328555       0.80631495       1.33707277       0.76191714       2.98958795      -0.99737229
N     2940.35670641    7975.04547307    4692.24535963      -4.01032096       0.84940856      -0.90843055      -1.37408110       2.47425502       2.64802513
N     1629.29792856   -4698.61315209    2351.55121123       0.28074581      -1.59324446       2.64334037      -0.04148645       1.29292456       0.05359902
O    -3488.18808575   -6417.33360145  -10452.53763452      -1.78268485      -1.73311920      -2.85170179       0.21206899      -0.38077173      -0.33164585
O    -1077.54629495    6887.11711642      66.33572695      -0.56247442      -0.24113232      -1.39189808      -5.61078119      -3.91712968       0.06606240
O     -635.20886047   -3160.63985163      25.44001189      -0.10221063      -1.84016273       3.18961156      -0.12684409      -1.00551023       0.24336394
O    -1501.24239460    6040.77149917   -1805.76278634      -0.44631297       1.75089405       0.25536250       0.41494480      -0.87925162      -0.68089557
O      170.88205680   -3000.98039099   -5005.79439806      -0.02289375      -0.08093977       0.59700243      -2.65670826      -2.93434341      -2.36615715
O    10119.79954138  -11201.51070912   -7102.37919602       3.35803788      -2.98107640      -1.46030068      -0.02899725      -0.01335375       0.01124767
H    -1078.46635942    6887.16056994      66.83883739      -0.32766116       0.53235144      -0.15796229       3.14368605      -0.07650949      -1.66737627
H    -1500.89872401    6040.04327477   -1806.32672589      -0.47598476       0.15104282       0.31845610      -0.41494480       0.87925162       0.68089557
H    -3487.81243468   -6418.00808623  -10453.12509956      -0.06891917       0.20556593       0.20845614      -0.21206899       0.38077173       0.33164585
H    10120.62147274  -11201.13219494   -7102.69801304      -0.42073238      -0.43076820      -0.00884399       0.02899725       0.01335375      -0.01124767
H    -1077.09143633    6887.82658668      66.61169679       0.09887290      -0.67441453       0.14724513       2.46709513       3.99363916       1.60131388
H      171.39386744   -3000.41509438   -5005.33856163       0.11336497       0.52922233       0.22081198       2.65670826       2.93434341       2.36615715
C     1790.54343892    2285.08118322   -1161.01655688       0.78368048       1.68697651       0.27205584      -0.04562235       0.55322168      -5.63302998
C     1790.02482379    2284.89395344   -1159.81393238      -1.70495404      -1.72552129      -2.14114392      -6.13882042      -0.83953698       4.60806748
C     1791.91975559    2284.93567903   -1161.14093045       2.94730932      -0.71190587      -2.80155740       1.76111172       1.25742554       0.73011446
N     1789.80265973    2285.46683026   -1162.14562129      -1.57811460      -1.15927808       2.65191918      -1.08527775      -0.80908541       2.65969182
C     1790.54004227    2285.18202342   -1158.51845450       0.40972115       1.15925780       0.23774897       2.58437417      -0.88532557      -1.21261156
N     1788.49341168    2284.23089162   -1159.73653018      -0.11547274       1.26716525       1.23815322       0.98668754       1.20517974       1.53487782
C     1791.97497547    2285.00212213   -1158.74030229       0.24165917       1.13589634      -2.12125952      -2.06213656       2.37566298       3.39692866
N     1790.00156273    2285.56699238   -1157.26391410      -1.72332320       4.38332604       1.28965797      -1.78493880      -2.67852692       0.10796741
C     1792.63862211    2285.11239257   -1159.92537793       1.55165476       0.01448601      -0.05474088       3.57592942      -2.54160731      -0.59028931
N     1792.63790418    2285.08041769   -1157.34484425       0.94589167      -1.60005976       0.42896124      -1.94801084       4.97210553      -5.29072462
N     1794.05923389    2284.94956188   -1159.86221567      -1.58343090      -0.94193333      -2.42496457      -3.06129612      -2.32423690      -0.10470804
N     1792.63161942    2284.94670408   -1162.36121252       0.68165840       0.78987654      -1.14815584       5.14194632       1.04156582      -7.58526276
O     1787.75731409    2284.75289166   -1158.92643796       0.23998543      -0.95008096      -1.18888016      -0.15889663       1.32967004       0.30023879
O     1788.21774038    2283.16818559   -1160.19772812       1.11957448      -0.30235840       0.99423474       0.97062620      -0.68894729      -1.73537144
O     1792.96870974    2284.04616171   -1156.97210012       0.28593956      -0.18260691       1.56807532       2.03700049      -3.58795990       3.47242847
O     1792.63379478    2286.22366753   -1156.88433640      -1.88962413      -0.18404810       2.91066787       1.08936715      -1.65801345       0.90248175
O     1793.92563674    2284.77857216   -1162.60758059       0.11737138      -0.36910730      -0.45691811      -3.21249499      -0.32549573       4.41042793
O     1792.14087271    2285.21031338   -1163.50726694       0.91999330      -0.92149181       1.07027733      -2.72722386      -0.34844314       3.25017554
H     1790.25008377    2285.48228762   -1163.00624020      -0.43128713      -0.05043333       0.37112714       1.32041095      -0.17352864      -1.50972888
H     1788.79576951    2285.39715878   -1162.22010855       0.25650890      -0.30396195       0.04582335       0.35625577      -0.17982885       0.70577376
H     1790.33538022    2284.97653637   -1156.32802192       0.50186012       0.37263436      -0.32272472      -1.09388994       2.10673734      -3.51580280
H     1788.91319221    2285.64706475   -1157.35175437       0.64446901      -0.47106058      -0.67189820       2.80438949      -0.55764574       0.41757496
H     1794.63501803    2285.61600050   -1159.58535556      -0.71959242      -0.38190548       0.18012913       1.56361242       4.86440971       4.26655292
H     1794.66429977    2284.82944627   -1160.61453772      -0.20743810       0.05050494       0.02055041      -0.87310338      -2.10779654      -3.58577238
C      301.61441428     272.79103265    -457.60549048       1.25550343       1.42923297      -3.06048715      -0.13628964       0.91066907       4.85643441
C      302.03043141     272.10673742    -458.74502800      -0.06027535       0.78231903      -0.73537716       1.21520948      -0.02086204       0.13785340
C      303.33789758     271.74989384    -459.00008718       0.59133349       0.80629239       0.99887957      -1.02192429       2.39666072      -1.13534018
N      301.36542110     273.22118255    -456.53963934      -1.76454823      -2.39176390       1.08929644       0.29021415      -0.72252890      -2.77185945
C    -1436.94783260     729.62265548   -2618.18657050      -0.39876610       1.92257241      -3.38503329      -1.18710640      -4.13901787      -5.49566066
N    -1160.51091845    2120.80632393     918.90686946      -1.11685969       0.23656950       1.61045272       0.74672906      -0.80754113       0.45614245
C    -1437.23047747     728.68628173   -2619.37887261      -1.39195888      -0.91659442      -0.52386579       0.99096953       4.29188739      -0.87765240
N    -1436.86308364     729.65242605   -2617.06951955      -0.92370002       0.40643002      -2.01811428       0.61271154       1.74353402       5.08292315
C      304.58472711     272.27418727    -458.41529463       2.02664139       0.16294810      -0.12464994       1.28667438       3.02549417       1.41819012
N     2493.57696115     438.25108989   -1707.70099699       1.45427552      -1.71998890       0.33534408       0.85867524       0.43944973      -2.26874471
N      305.44679608     273.02573507    -458.07369154       0.77122803      -2.03038663       0.94439514      -3.00774840      -3.41067235      -1.22563399
N      594.02987017    6039.18694415     323.95402438      -1.68403996       1.86079072      -0.35974764       0.47519910       0.47201355       0.02761931
O    -1160.48529911    2121.33687138     919.92273110       0.55847616       2.34774116       1.87470229      -0.20661859       1.11184183       0.70573632
O    -1159.65441207    2119.61380146     918.96324690      -0.90460560      -1.58622016       0.00006892      -0.23093471       1.76209933       1.08514721
O     2494.41220330     437.40812796   -1707.98997207       1.80490329      -0.96921929      -1.00394469      -0.34241826      -0.05501901       0.72322783
O     2492.92457098     438.41341396   -1706.72636607       1.36935684       1.30795378      -1.50968530      -0.51625697      -0.38443072       1.54551688
O      593.23045793    6038.39289086     323.90756130       3.46845444       4.09315470       1.90575680      -0.47519910      -0.47201355      -0.02761931
O    -2657.06778261    5751.92642575   -2940.28163090      -2.05262567       2.52190992      -1.67974951      -0.46476184       1.35041183      -0.38958977
H    -1160.08173336    2119.23733932     918.24044803      -0.69263201       0.56639521       1.15450747      -0.30917576      -2.06640002      -2.24702599
H    -2656.77412757    5751.07318177   -2940.03547257      -0.30531125       0.66999652       0.11102878       0.46476184      -1.35041183       0.38958977
H      303.45970220     271.79536026    -460.07062074       0.78240866       0.31032127       0.02346268       0.42411271      -1.46229037      -0.39456791