1296
Lattice="-21.727463314808578 12.10212629545733 7.618803207627121 0.0 23.271256540851446 13.802150013964285 0.0 0.0 -27.084147392577492" Properties=species:S:1:pos:R:3:momenta:R:3:forces:R:3 energy=-1487858.0055858614 free_energy=-1487858.0055858614 stress="0.003078373045257405 0.00031916235637348466 -0.001095812806798245 0.00031916235637348466 0.003451118784993238 -0.002845901910493748 -0.001095812806798245 -0.002845901910493748 -0.001860828311401123" pbc="T T T"
C      -20.06550577      15.57802496       0.88241986      -0.45192880       0.07400076      -0.17690800       0.84883430       0.59144268      -0.11471380
C      -20.33832317      14.31651317       0.24494968       0.48845642      -0.29334001      -0.71375953      -0.43396702      -0.53978272      -2.52644261
C      -19.85645209      15.59586075       2.30146818       0.76468498       0.44738036      -0.19880315      -0.46028557      -1.28606233      -0.45185267
N      -19.84777099      16.69139306       0.16105973      -0.77845142      -0.15832249      -1.04859501      -0.86816024      -1.18575716      -0.83145190
C      -20.13556709      36.30665782      14.64533794       0.19991499       0.37981922      -0.22298662      -1.68124949       2.29414730      -0.05615042
N      -20.78748294      14.26096403      -1.23863465      -1.03536846      -0.51730597       0.16068778       0.30612067      -0.34360933       2.94898505
C      -19.82903369      36.40411002      16.01803159      -0.14565298       0.46653108       0.61216864       0.21191545      -1.74991603       1.26782774
N      -20.43811646      35.18326089      14.03520581       0.33185623       0.18655608       0.55474851       1.09722577      -2.42263504       1.25480771
C      -19.78903940      14.32819534       2.98205687      -0.31034796      -0.39541816      -0.54264049       0.44045779       0.26431830       0.44024045
N      -19.81036184      35.10220728      16.73442992      -0.08329717       0.43441288      -0.46755296      -0.51067155       0.41767793      -0.03613599
N      -19.60282347      14.24152802       4.30289194       0.23997005       0.49719551       0.54443267      -0.60357189       0.23698840       0.43003680
N      -19.64070812      16.80906998       3.04287339       0.18796794       0.10886842      -0.53428830       0.69320088      -1.85826020      -2.66703410
O      -21.24874518      13.22873240      -1.72855208      -0.06958671      -0.02847751      -0.84905257       0.49098275       0.52945722       0.07529145
O      -20.73572844      15.29389203      -1.84084346       0.50573932       0.13520049       0.19395223       0.05467640       0.93219753      -1.41550812
O      -20.26016377      34.96799365      -9.21852547      -0.30606243       0.70791704      -0.17828868      -0.13504147       0.91044498       0.36721755
O      -19.40954953      34.11993545      16.13388484      -0.36565036       0.17142681      -0.27680339       0.79952145      -0.35789119      -0.47280106
O      -19.04003959      16.65715899       4.08117771      -0.34202053      -0.18264564      -1.15623558       0.07259068       1.62005650       1.45504932
O      -19.89012208      17.87341226       2.49391988      -0.68490682       0.03992078      -0.44548709      -0.28645298       0.53424148       0.92192833
H      -19.79863288      17.60160503       0.56117907       0.07780549       0.14422736      -0.26825055       0.00857301       0.19662193       0.54250983
H      -20.12089778      16.62382512      -0.81796341      -0.14373611       0.30874080      -0.08681518       0.24851898       0.39140312       0.45471142
H      -20.07473523      34.35359017      14.56882130       0.07021340       0.17389612       0.00570769      -0.86291092       0.87970742      -1.40966591
H      -20.90295320      35.08685043      13.13930494       0.21407805       0.03827947       0.00221317       0.54913068       0.39275870       0.35994980
H      -19.43800383      15.11158024       4.83311897       0.07593685      -0.22189078      -0.15625529      -0.29989194      -0.95804119      -0.38499979
H      -19.97556419      13.42447333     -22.28667531       0.12755071      -0.23240315      -0.28177089       0.69514658       0.57113743      -0.37263357
C      -16.21935327      13.14113124       2.10837515       0.09511656       0.59496964       0.16139954      -0.12229298       0.91797090       2.95365017
C      -16.05406330      14.42638362       2.79565232      -0.31167072       0.76090204      -0.28852910      -0.39049287      -1.06694487       0.27825562
C      -16.39421396      13.13486496       0.75160289      -0.05233057       1.09081147      -0.04582895      -0.49384538      -0.36751712      -3.38021588
N      -16.25570486      12.05160706       2.84560048       0.78487051       0.96397337       1.08342623      -0.35362664      -0.90004400       0.20426589
C      -16.25360450      15.65164255       2.07646756      -0.15444852       0.49592366       0.18653419       0.48414000      -1.22681469      -2.00905336
N      -15.98731589      14.49966041       4.24840917       1.18936935      -1.85469325      -0.01214674      -0.75273741      -0.53279554       0.80778450
C      -16.19047540      15.61811360       0.62824131      -0.54499762       0.11014485       0.39867661      -0.54562887      -0.52915746       0.34339492
N      -16.46259566      16.77512326       2.63916831      -0.86974217       0.60877329      -0.72031776      -0.42093721       0.77887521       1.88580210
C      -16.26901026      14.33097524      -0.04711004       0.42959940      -0.15112355      -0.26489890      -0.06141373       1.62729054      -0.49745270
N      -16.27706813      16.86264947      -0.13040265      -0.55756715      -0.30533547       0.25596848      -0.22939735       0.17462248      -1.45375145
N      -16.29932435      14.38657987      -1.36542170      -0.68944533       0.31742185       0.64613073      -0.10160936       0.03935431       0.46406008
N      -16.69975504      11.88859669       0.05269763      -0.07196162      -0.88408582      -0.08310579       1.66234423       0.11459182      -1.30561607
O      -15.83978020      15.59850157       4.72152962       0.63092520      -0.73345294       0.13828870       0.36187685       1.89289211       0.35091694
O      -16.11834997      13.57516603       5.08209682      -0.02861271      -0.29350153      -0.15766637       0.09704782      -1.22007240      -1.95504805
O      -15.82905660      16.83975386      -1.31548107       1.35877665      -0.88883048      -1.13352872      -0.21680047       0.44161152       1.62852567
O      -16.82402118      17.90117479       0.27034138      -0.14862035      -0.45759692      -0.22667993       0.68085584      -1.48974293       0.70846455
O      -16.68887594      11.83824864      -1.20344703      -0.61986912       0.14289818      -0.46916822      -0.36314196       0.59137932       1.41466656
O      -16.80971482      10.85632186       0.68880665      -0.12988194      -0.30588179      -0.94621169      -0.37368799      -0.29724285       0.21581560
H      -16.43035985      11.13336869       2.39751277      -0.46480142       0.14071486      -0.06501121       0.20319728       1.14542451       0.58742049
H      -16.35253058      12.18166876       3.85497240      -0.25303643      -0.02454849       0.09055913       0.36880731      -0.25208638      -0.33507937
H      -16.62757114      17.60740219       2.15256101       0.23705439       0.10515200       0.26660045      -0.16588057       1.14093489      -0.95417871
H      -16.43752238      16.78156743       3.63521056      -0.04119585      -0.15461120       0.05501965       0.13543108       0.47812341       0.57943754
H      -16.35448091      13.53647912      -1.90600526       0.21072321       0.27915394      -0.03533680      -0.22028978       0.08042129       0.10887900
H      -16.24761203      15.35588209      -1.73843656       0.03439307      -0.22224847       0.05384363       0.26244681      -1.58696533      -0.38501252
C      -12.57554775      10.41039705       0.51733818      -0.44983597       0.48555711      -0.52502814       0.02159273      -0.31801772      -3.27575364
C      -12.49366993       9.10503815      -0.16550168       0.09674016      -0.78026462      -0.28598657       0.32951866       2.07592963       0.08335732
C      -12.68681828      10.50511672       1.89568906       0.05166579       0.64289252       0.16429416       0.71669582       1.49677421       1.41224653
N      -12.54830084      11.49572566      -0.24562615       0.64049755      -0.19747780       0.85997220       0.24361356       0.70650364       2.52230320
C      -12.45183131      31.24826223      14.47317884      -1.06076266      -0.57050440       0.46564281      -0.16906396      -2.15419958      -0.16773530
N      -12.26602167       9.01974865      -1.59742290      -0.21149248      -0.08318319      -0.14224261       0.14384333       1.61173984      -0.41430002
C      -12.56815652      31.38748729      15.86791772       0.31313614       0.87654682       0.10431381       0.49813173      -0.27941474       1.66368212
N      -12.38413849      30.03295449      13.94769305       0.59477320      -0.25970680      -0.49377940      -0.44156247      -0.33552640      -0.90951335
C      -12.64243942       9.34553964       2.74292520       0.45903299      -0.37834841       0.73402424      -1.39006303       0.15155807       0.10366049
N      -12.56679987      30.16884486      16.69853128       0.26012224       0.72954796      -1.31719104       0.30139811       0.40845303      -2.22113682
N      -12.82422670       9.40873308       4.04927171      -1.36001127       0.03908826      -0.01779388       0.78420956      -0.86860528      -0.04448518
N      -12.66153595      11.84681752       2.50632568       0.11746893      -0.03138477      -0.42702372      -0.33458134      -2.46745509       1.76943445
O      -12.00722157       7.93296747      -2.10383644       0.24117084       0.34328007       0.66826035      -0.39956201       0.27698763      -0.07801500
O      -12.28741426      10.06422864      -2.33626950       1.02441590      -1.20203742      -0.92798491      -0.21670552      -1.93472680       1.60859319
O      -13.22425902      30.10349354      -9.37107121       0.28719621       0.35704153      -0.33432337      -0.30811920       0.00516748       0.64358157
O      -11.91457124      29.23083378      16.25268927       0.67042488       0.73343157      -0.39297629      -0.11158349      -0.41876065       0.64713892
O      -12.56301282      11.83224585       3.76598008      -0.23329443      -0.62794426      -0.26871432       0.03030484       1.58719638      -1.93038923
O      -12.77980715      12.86612637       1.85545412       1.08188068       0.15659801       0.12997313       0.19320966       0.29365790       0.60721940
H      -12.41683822      12.40236059       0.23006700       0.12282163      -0.00030693      -0.25858002      -0.65805818      -0.81337883      -0.92318338
H      -12.53468753      11.41063199      -1.22657552       0.00203880       0.09179576       0.08888855       0.33212378      -0.03089055      -1.01210043
H      -12.32173811      29.14655883      14.46170620       0.06404734       0.04220942      -0.37558259       0.01163617       1.17702604      -0.38535205
H      -12.49082267      30.06297757      12.93770547      -0.25309084      -0.24501279      -0.09531131       0.40168306      -0.76493523       0.42602125
H      -12.72947554      10.32041355       4.48911571       0.43284391       0.16907043      -0.10743389      -0.19676877      -0.45898591       0.14135943
H      -12.72473248       8.53434030     -22.49806382      -0.17689671      -0.04255160      -0.00771180      -0.47919389       1.07537364      -0.26528722
C       -9.22676309       8.23002498       2.46718288      -0.41739863       0.52820918       0.86924920      -0.51237080       0.70080535      -0.73402332
C       -9.37723824       9.51057677       3.08811027      -0.11053795      -0.12389282       0.01900730       0.47786199       1.83028612       0.32290655
C       -9.03483051       8.21453323       0.99984824      -1.16505551       0.45151529      -0.78188323      -0.04406335       0.38431782       3.10667281
N       -9.42865719       7.15810019       3.20636751      -0.83391229      -0.20840957       0.11294636      -0.35871393       1.27201032       1.03004150
C       -9.00986160      10.76049580       2.36837585      -0.50843284       0.14120869      -0.52045721      -0.42035667      -1.51723270      -0.51119909
N       -9.75925174       9.62856389       4.50812600      -0.25692327       0.44747818       1.06460561       0.16818927      -0.17287298      -0.42835148
C       -8.76121839      10.65450675       0.93461693       0.51189153       0.25505517       0.41473068      -0.65330258       0.46556875       2.26077877
N       -9.02418905      11.94510881       2.92204070      -1.54723949       0.46321192      -0.95514209      -0.12123386       0.29531580      -0.66056180
C       -8.94875605       9.43873244       0.28936668       0.14163563       0.12671405      -0.89450017      -0.57299785      -1.46353975      -3.59205554
N       -8.52033070      11.84073130       0.21301497       0.12291838      -0.58132216       0.75074867       0.16214444       0.20623928      -2.23930471
N       -9.03907377       9.41344864      -1.06902561      -0.15435342      -1.55577251       0.28333004       0.60344343       1.17505717       1.32792292
N       -8.97351013       6.92213132       0.42063661       0.00546225       1.41843645      -0.51818092      -1.05959327       0.66122905      -2.10390650
O       -9.48568908      10.69391003       5.09639918      -0.45478446       0.49689104      -0.35878521      -0.33328183      -1.31703636      -0.09804309
O      -10.35619026       8.69066999       5.08890938      -0.21525995      -0.21064394       0.19462678       1.26732143       1.32503952      -0.82350091
O       -8.73221518      11.93322420      -1.01436863       0.36330961      -0.33009930      -0.01318116      -0.36818591      -1.00613708      -0.08820248
O       -8.04000752      12.80198973       0.74288607       0.59250157      -0.29682368      -0.99242249       0.54613527       1.46143412       1.99235975
O       -9.48352084       6.77059048      -0.72028957       0.31213062      -0.21645335      -0.62087988       1.06374216      -0.09574927       1.52062107
O       -8.47144397       6.02449598       1.06795610       0.00653738      -0.83074746      -0.13333294       0.03040582      -0.59045664      -0.24861471
H       -9.15105858       6.28729840       2.86620166       0.08303200      -0.39648895       0.41397202       0.12388854      -1.47483452      -0.47710013
H       -9.86982596       7.25096104       4.14568263       0.09358639       0.11383209      -0.08276480       0.81296544      -0.10054422      -1.15608781
H       -9.02084428      12.77216776       2.31797570      -0.00164842      -0.41771552       0.10194959       0.50137567      -0.54759570       0.66086649
H       -9.07603066      12.05059597       3.91287791       0.04253657      -0.01322163      -0.03376002      -0.32567878       0.03454943       0.57955663
H       -9.19287983       8.53946708      -1.50434796      -0.14736686       0.03297721       0.09981991      -0.07829742      -0.70164701      -0.42489480
H       -8.92770635      10.29377641      -1.60496446      -0.13815509      -0.08113635      -0.40793847      -0.24915356      -1.11594870       0.69481195
C       -5.27916245       5.07982183       0.95576833      -0.05800329       1.13975226      -0.12698956       0.21616836       1.22019748       0.74336772
C       -5.15594920       3.83819719       0.27866675       0.07036612       1.12725001      -0.07975183       0.04551696       0.79571339      -1.65253182
C       -5.61956738       5.04265297       2.37040900       0.14063848      -0.34033089       0.08691651       0.03604050       0.73293401       0.09445881
N       -5.03219053       6.24391734       0.31851763      -0.38087042      -0.26728464      -0.26475944      -0.71656213      -1.24907373       0.12712204
C       -5.54962351      25.88030184      14.66611334       0.21000961       0.53924372       0.16160817       0.33282794       2.20525337       3.30837624
N       -4.85104151       3.89528089      -1.11494144       0.65396707       0.81779505       0.74583573       0.50612163      -0.92085564      -1.88528238
C       -5.58323991      25.89534501      16.13277058      -0.22638344       0.74382124      -0.09865582      -0.53603283      -0.23956473      -0.18414332
N       -5.80511875      24.83886304      13.99679158       0.86951446      -0.65174217      -0.89606329      -0.77261687      -2.92729845      -2.19099410
C       -5.63552793       3.84025672       3.13677630       0.22536611       0.24639352      -0.45660996       0.19881644      -2.19115503      -1.47776324
N       -5.70768604      24.62947430      16.78633929      -1.84749222      -0.04827645       0.07437241       1.04828075       0.92750604       0.11186005
N       -5.75000496       3.73047589       4.44825972       0.00302314      -0.01552734      -0.22035466       0.63617715       0.78247255       0.00251523
N       -5.94333387       6.25147536       3.05036878      -0.44334334      -0.31569208      -0.40105861      -0.35832321       1.87337651      -0.30431525
O       -5.13374276       2.92733196      -1.89707481       0.13561213      -1.42160494      -1.14205292       0.30647004       1.36502220       1.44782422
O       -4.23305417       4.86705586      -1.60504895       0.48428858       0.26729320       0.34424461      -0.79309580      -0.95632835       0.48519966
O       -5.38823560      24.56261163      -9.10227890       0.01640959       1.11302008      -0.48687927      -0.29906221      -0.49324010      -0.35260161
O       -6.01942360      23.62002770      16.15605569       0.66878526       0.13943792       0.34843513      -0.42233078      -0.24895957       0.50214673
O       -6.23448168       6.23930406       4.26153433       0.78121616      -0.56093010       1.43600398       0.43376112       0.27293553      -1.86418101
O       -5.96966328       7.33852105       2.37340346       0.71846152      -0.17009474       0.13975044      -0.08534216      -1.83751362       2.05514608
H       -5.34234976       7.12453993       0.70082645       0.29355826      -0.05161986       0.07161263       0.15144390      -0.41016422       0.27654832
H       -4.89307539       6.17188453      -0.68883980       0.04576236       0.07581269      -0.32873479       0.23863321       0.22608101       0.52857568
H       -6.12850040      23.97696835      14.46654694      -0.10562209       0.17876480      -0.22032895       0.54706777       0.77331687      -0.48190756
H       -5.69038692      24.89172286      12.98080635      -0.52329223       0.17970665      -0.21637956      -0.14068740      -0.20568167       0.50333960
H       -5.67639798       4.59337423       4.94150806       0.06061812      -0.06365214      -0.11378047      -0.25011489       0.40958639       0.37067911
H       -5.49506994       2.88162138     -22.14126370      -0.15832971      -0.16017400       0.21457925      -0.43884145       0.17191831      -0.52832613
C       -2.33516357       6.60572296       3.04672002      -0.40390460       0.11823016      -0.33465933       0.80909499       0.66648933       2.86450729
C       -2.34874296       7.88157917       3.73926254       0.18015307      -0.64747255       0.06186005      -0.20368043       0.33858633       0.31968302
C       -2.11458749       6.58345512       1.67640603       1.23332112      -0.14625083      -0.25887613      -0.99117795       0.20035109      -0.30579246
N       -2.30785884       5.53880324       3.84785071      -0.25437956      -1.92379523      -1.57053739       0.01837360      -0.51252616      -0.61702907
C       -2.00317506       9.06056333       3.04601998      -1.36599272      -0.62869327      -0.59599894      -1.02685695       0.80500839      -0.51528313
N       -2.58282348       8.00596317       5.16201600       0.70739292      -0.19774599      -0.86703906       1.46165284       0.88303124      -0.19083620
C       -2.00239111       9.03652320       1.60463838      -1.04070830      -0.07195807      -0.35899967       0.67728241       1.71329798       1.57773279
N       -1.92702607      10.23497138       3.65188210       0.28996059       0.89538155       0.37258749       0.33259565      -0.32339462       1.34608618
C       -2.08823848       7.83850678       0.91603773      -0.52286201       0.05787817      -0.49545184       0.31876923      -0.75424914       1.18467991
N       -1.75733784      10.31921353       0.86083934       0.63141892       0.11093638       1.15081251       0.22510022      -1.21427035       0.29377012
N       -2.06226862       7.81975076      -0.36611545      -0.91771251      -0.27497540      -0.48001665       0.11390787       0.13790091      -2.44131996
N       -2.01936205       5.31812062       1.03860152       0.27518855       0.32968024      -0.81268532       1.76906795       0.83006774      -1.69591719
O       -2.17073697       9.02813209       5.77557053      -0.46618753       0.46766121       0.80997544      -0.44381467      -0.74731726      -0.46200340
O       -3.12417424       7.12769574       5.79693099       1.10932573       0.15030261      -1.15517004      -0.60082611      -1.06603986      -0.01956140
O       -2.26540099      10.41462362      -0.24031623      -0.51001127      -0.12684131       0.16552738      -0.79037267      -0.25371754      -1.25999776
O       -1.04300239      11.21886068       1.26714177      -0.86229760       0.61446576      -0.41953247       0.02768296      -0.28239605       1.32299675
O       -1.58629009       5.33488361      -0.14335146       0.77679423       0.94433380      -0.08939201      -0.43806259      -0.32548810       0.76682431
O       -2.20780982       4.25792909       1.60923694      -0.29662538      -0.52004727       1.48294496      -0.40875395       0.10609047       0.28341852
H       -1.92457796       4.68810915       3.45579917      -0.09090260      -0.01134047       0.01535636      -0.49941789      -0.05375698       0.30402688
H       -2.30747235       5.64453992       4.86130827      -0.13576961       0.12289384       0.00279764      -0.10264314       0.02397954      -0.61285324
H       -1.63232350      10.97497060       3.10346431       0.15701239      -0.05306452      -0.19809249       0.59633833       1.58029012      -1.01119475
H       -1.79142342      10.33766934       4.66508403       0.06501989       0.27438618       0.08808390      -0.41792956      -0.55546145      -0.98927633
H       -2.00489588       6.93504332      -0.81433546      -0.01303078       0.14460768       0.30662349      -0.03095045      -0.64947089      -0.36098346
H       -1.96295178       8.64702406      -0.93249163       0.22880309      -0.03339310       0.08722804      -0.25838439      -0.05563857       0.38982958
C      -19.79108885      23.57899644       5.28245781       0.44222217      -1.24782210       0.36896786       0.44362198       0.32448879       1.28432328
C      -19.65579325      22.36706155       4.56030778       0.09538800       0.38576332      -0.12293130      -0.55357549      -1.32739145       0.80649935
C      -19.99981613      23.53255613       6.71471277       0.39845941      -0.85081368       0.81667881       0.79146612      -0.35655807      -0.19864411
N      -19.66483557      24.74133414       4.68908322      -1.26418820       0.24405512      -0.71398906       0.26459998      -0.69500990      -2.06401997
C      -19.76634500      21.08640537       5.23368997       0.76650564      -0.01505981      -0.34006714      -0.26700463       1.09551127      -0.03549909
N      -19.59637353      22.39705204       3.15908650      -0.70866137       0.29985551       0.44052188       1.29948743       0.98798183      -1.81667279
C      -19.80290452      21.06930037       6.66163458       0.16092001      -0.53760987       0.13826430       0.00842220      -1.44009607       0.03713948
N      -19.85373461      19.97925395       4.54718778      -0.00903172      -0.67217103      -0.80743963       0.32549502      -0.10056750       2.39460792
C      -19.86954834      22.21766644       7.43261426       0.29211625      -1.08338650      -0.22519240      -0.25880979       3.33966283      -0.27319597
N      -19.93142144      19.79427819       7.41646450      -0.36280511       0.84296881       0.08766731      -1.31052483      -0.42803856       0.26887340
N      -19.77770633      22.20833695       8.74155263       0.47525830      -0.09218050      -0.24612774      -0.59490055       0.03660580       0.63885013
N      -20.16195008      24.79842574       7.41616361      -0.28866088      -1.48351041      -0.02013229      -1.45238100      -1.27611431       1.70909440
O      -19.95879930      21.42648843       2.46998434      -0.25966580      -1.33902573       0.30961824       0.15257630       1.06888304       0.60444430
O      -19.08060760      23.41905579       2.60971203       0.04323372      -0.43511628      -0.30177189      -1.07597110      -1.93174652       0.48510433
O      -20.67927911      19.76037187     -18.65968182       0.78187065      -0.49527610      -0.11849196       0.83738638       0.75339551      -0.85078129
O      -19.41814918      18.76836534       7.02486605       0.62752927      -1.03986975       0.41046029       0.35804983       0.46296826      -0.79277039
O      -20.37120613      24.73513164       8.65075210      -0.22556425       0.20087398      -0.13142011       0.76352049       0.12327237      -1.11820700
O      -20.26999897      25.89765177       6.85532281       0.85528283       0.30583345      -0.79784714       0.32892059      -0.46528065      -0.16686213
H      -19.85311846      25.53796515       5.23584072       0.08880021       0.00540138       0.34240575       0.02800672       1.14588796       0.26616156
H      -19.42946270      24.76543497       3.67561608      -0.46690551      -0.07782628       0.22514796      -0.37510101       0.07583759       1.27601073
H      -19.79316909      19.14587526       5.06943778       0.19785836       0.01310442      -0.07257536       0.06136500      -1.11110404       0.26689928
H      -19.94270913      19.98022352       3.58995943      -0.15494525       0.01906975      -0.04624031      -0.12505142      -0.05560221      -2.35997779
H      -19.88542883      23.11233411       9.22356219       0.02198955       0.00207881       0.17448446      -0.01815694      -0.75568203      -0.16754575
H      -20.02156806      21.33968805     -17.86534638      -0.09641697      -0.25046753       0.00794299       0.39667398       0.61478949      -0.01148821
C      -16.34485769      20.99555342       6.62600453       0.08280455      -0.06910792      -0.49740800      -0.14381478      -3.26470812      -0.45997995
C      -16.27770950      22.18161272       7.33856776      -0.51898234       0.13075328       0.30013503      -0.60195824      -1.46884141       2.30134931
C      -16.14998803      21.02428698       5.19684557      -0.32764263      -0.76487320       1.11457887       0.03191742      -1.10845342       0.12245110
N      -16.59655500      19.79226639       7.21926148      -0.40001582       0.32467609      -0.57338473       0.74122809       2.58048170       0.09533690
C      -16.13993237      23.38824162       6.72070324       0.96236948      -0.33422801      -0.00928227       0.05207712       2.62877082      -1.42013486
N      -16.32909204      22.12835915       8.80664198      -0.24614018      -1.01613307       0.23514946      -1.51522068      -2.87726666       0.02201090
C      -16.27163615      23.43440545       5.27990824       0.41050285      -0.74854389      -0.17568751       0.34143463       0.20262949       0.48414825
N      -15.93933817      24.45892753       7.48059101      -0.25379295       0.44274238       0.87439792      -0.08034458      -0.36736942      -1.71656927
C      -16.25630559      22.23843512       4.47062857      -0.15769786      -0.12319378      -0.00142412       0.29651500       1.27101239       2.31227910
N      -16.21985138      24.70337650       4.62983459      -1.06844640       0.13934409      -0.43795774      -0.34116791       0.64966430       0.99155744
N      -16.33292349      22.31367894       3.19442659      -0.22163826       0.79668200      -0.96577068      -0.42008990      -3.01493980      -2.32346511
N      -15.97791613      19.79751966       4.46642620       1.01851842      -0.39632507      -0.82157716      -0.26177727      -0.52394625       0.26405958
O      -15.71369599      22.89292238       9.50069356      -1.24862666       0.41515960      -0.15070612       0.99219042       1.32381631       0.54793108
O      -17.00812096      21.22415182       9.34839277      -0.15701817      -1.09992826      -0.67641595       0.53967666       0.80600409      -0.92887437
O      -16.04586971      24.76712613       3.41771288       0.47800526       0.93304048       0.04989255      -0.02067208       0.56836186      -0.24581342
O      -16.38392059      25.73188455       5.31055922       0.66897996       0.93476506       0.45061361       0.14479365      -0.65403252      -0.60709493
O      -16.08490880      19.80000307       3.23392754       0.07430965       0.41020725      -0.54927271       0.10986748       0.00742534      -0.05284974
O      -15.73258388      18.72080671       5.03791226      -0.42655180      -0.17427264       0.03063959      -0.00988968       0.85065174       0.01265134
H      -16.26840409      18.98914723       6.71852778      -0.08312325      -0.00072254      -0.07941172      -0.29851164      -0.47616045       0.14342885
H      -16.80303228      19.84028508       8.21922527       0.07990778       0.24373392      -0.23259983       0.15739218      -0.62748899      -0.54167941
H      -15.84165079      25.35794570       7.05598933       0.40263968       0.22409750       0.08872513      -0.24267681       0.43230725      -0.03954022